/*--------------------------------*- C++ -*----------------------------------*\
| =========                 |                                                 |
| \\      /  F ield         | OpenFOAM: The Open Source CFD Toolbox           |
|  \\    /   O peration     | Version:  2306                                  |
|   \\  /    A nd           | Website:  www.openfoam.com                      |
|    \\/     M anipulation  |                                                 |
\*---------------------------------------------------------------------------*/
FoamFile
{
    version     2.0;
    format      ascii;
    arch        "LSB;label=32;scalar=64";
    class       volVectorField;
    location    "0.55";
    object      Force;
}
// * * * * * * * * * * * * * * * * * * * * * * * * * * * * * * * * * * * * * //

dimensions      [1 1 -2 0 0 0 0];

internalField   uniform (0 0 0);

boundaryField
{
    walls
    {
        type            calculated;
        value           uniform (0 0 0);
    }
    inlet
    {
        type            calculated;
        value           uniform (0 0 0);
    }
    outlet
    {
        type            calculated;
        value           uniform (0 0 0);
    }
    NASA
    {
        type            calculated;
        value           nonuniform List<vector> 
14179
(
(-0.0144664 -0.133045 3.50417e-06)
(-0.0129131 -0.106755 2.27677e-06)
(-0.0656709 -0.531255 0.000339371)
(-0.100453 -0.807462 0.00114833)
(-0.0653462 -0.529048 0.000177991)
(-0.109376 -0.879058 0.00130149)
(0.220801 0.958736 -0.000196204)
(0.0906135 0.454614 -2.86896e-05)
(0.667113 3.27217 0.00444062)
(0.0956148 0.479713 -3.01309e-05)
(0.000118223 -0.0037109 8.06719e-07)
(-0.0178171 -0.14563 0.000238548)
(0.131123 0.65453 -0.000855892)
(-0.03553 -0.322886 0.000647338)
(0.0621659 0.310139 -0.000385018)
(1.37835 0.929768 0.00281356)
(1.39338 0.923332 -0.000246868)
(0.0229364 0.128761 -2.59468e-05)
(0.170175 1.00939 -8.46395e-05)
(1.29018 0.855042 -0.000775416)
(-0.0170504 -0.238569 -1.35056e-05)
(-0.021198 -0.197116 -0.000136398)
(-0.0194986 -0.27072 -0.000252121)
(-0.00857835 -0.0624924 1.3895e-06)
(-0.0130895 -0.108272 1.14578e-05)
(-0.00926522 -0.0674962 1.13664e-05)
(-0.0130325 -0.107265 0.000230337)
(-0.0152039 -0.108901 0.000242029)
(-0.0134198 -0.122471 0.000264465)
(-0.0157989 -0.216552 0.00352414)
(0.0468678 0.20467 2.92096e-05)
(0.0528322 0.249109 6.55314e-06)
(0.0568105 0.26787 -6.44181e-05)
(0.0462267 0.201367 -1.74366e-05)
(0.0600029 0.220012 6.68111e-06)
(0.0618433 0.22676 2.31009e-05)
(0.0303764 0.110164 4.02248e-06)
(0.0326861 0.118536 1.48075e-05)
(-0.00172751 -0.00839581 0.000134328)
(-0.0131501 -0.0639555 0.000602946)
(0.169608 0.619182 -0.000501439)
(0.0991298 0.357254 6.90821e-05)
(0.0988709 0.496236 -1.61536e-05)
(-0.0058944 -0.0414555 2.45653e-06)
(-0.00536595 -0.037739 -4.84465e-06)
(0.156202 0.784567 -2.70566e-05)
(-0.0098167 -0.0678874 0.000184652)
(0.0975438 0.48672 -0.000165243)
(0.0906477 0.452716 -0.000268592)
(0.107613 0.439666 -0.000325861)
(0.0842218 0.31308 -1.66303e-05)
(0.0838737 0.311773 -3.05102e-05)
(-0.0619459 1.51313 -0.000116159)
(1.38905 0.923467 -0.000728261)
(-0.0481736 1.18174 7.78982e-05)
(-0.00263736 1.31889 -8.55029e-05)
(0.0724875 1.09654 3.7201e-05)
(0.0671193 1.01265 -0.000146966)
(-0.00236722 1.06433 -1.19424e-05)
(0.0879153 0.345397 -1.59076e-05)
(0.18097 1.07331 -5.9239e-05)
(0.00828496 0.0301753 6.0081e-05)
(-0.0229445 0.570923 -0.000272331)
(0.933438 0.636808 0.0784568)
(-0.000697023 0.536848 -0.000551705)
(0.0272938 0.414181 -0.000305236)
(0.128417 0.751192 0.00767119)
(-0.0146001 -0.146084 5.79642e-06)
(-0.0144081 -0.132592 5.93317e-06)
(-0.0988117 -0.794389 0.00112678)
(-0.0113731 -0.090204 2.606e-06)
(-0.0128908 -0.106578 4.64008e-06)
(1.33433 0.883274 -0.00145471)
(1.28753 0.852557 -0.00118814)
(0.347404 2.05853 -0.00338372)
(0.261655 1.54491 -0.00217593)
(-0.110843 -0.891996 -0.000160835)
(-0.0553788 -0.344557 0.000543379)
(-0.0547119 -0.342569 0.000535409)
(-0.0411112 -0.241191 0.000404302)
(0.157213 0.678012 -0.00105152)
(0.175836 0.759864 -0.00114473)
(0.761678 1.30773 -5.85745e-05)
(0.762213 1.30666 -0.000335606)
(0.0911671 0.457346 -1.00678e-05)
(0.0844477 0.405501 -1.60112e-05)
(-0.000181252 -0.00260353 -9.84591e-07)
(0.00156227 0.00800432 -6.39373e-08)
(0.001595 0.00819079 -1.7779e-06)
(-0.000169373 -0.00252321 1.781e-07)
(0.0972671 0.488074 5.19366e-06)
(0.0913797 0.471031 -1.8297e-05)
(-0.0201061 -0.16422 0.000274761)
(-0.0134242 -0.0961156 0.000177945)
(-0.0202769 -0.144722 0.000241432)
(-0.0122378 -0.0843238 0.000167085)
(-0.018012 -0.123465 0.000163798)
(0.0860098 0.428966 -0.000680085)
(-0.0201207 -0.182915 0.000289184)
(-0.0247539 -0.340052 0.000816809)
(-0.0209834 -0.294453 -0.000122963)
(0.0806643 0.402674 -0.00060938)
(1.37565 0.92385 -0.00270142)
(0.102965 0.606809 -3.2143e-05)
(0.111279 0.622045 -1.35624e-05)
(0.111875 0.625231 -3.01249e-05)
(0.198326 1.38055 -6.68103e-05)
(0.116114 0.688531 -2.20016e-05)
(0.172541 1.02327 -3.48817e-05)
(0.019366 0.0182847 2.10911e-05)
(0.365487 -0.134682 0.00366806)
(0.377513 -0.149668 0.00178175)
(0.0160345 0.0154137 -4.13642e-05)
(-0.00589341 -0.0254428 0.000117712)
(0.0229803 0.0847182 -7.08734e-05)
(0.0034273 0.0120534 5.66912e-05)
(0.0234338 0.0943666 1.94605e-05)
(-0.00889676 -0.0397455 8.31092e-05)
(-0.000954702 -0.00619107 9.11433e-05)
(0.00511972 0.0215043 1.72772e-05)
(-0.0177549 -0.0858719 0.000139732)
(-0.00100908 0.733812 -0.000950324)
(0.0409433 0.610695 -0.000848411)
(-0.00147857 0.98262 -0.00132129)
(0.0320211 0.484148 -0.000995523)
(-0.034772 0.871125 -0.00133643)
(1.1147 0.749724 -0.00101676)
(-0.0471145 1.16792 -0.00154948)
(0.110466 0.65338 -0.00193057)
(0.157039 0.614741 -0.00114538)
(0.118179 0.462017 -0.000612286)
(0.108871 0.397138 -0.000502811)
(0.153803 0.561729 -0.000731625)
(0.0633288 0.228414 -0.000286588)
(0.0864398 0.312295 -0.000473537)
(-0.0131705 -0.148388 -2.45212e-06)
(-0.0169343 -0.236629 6.69894e-06)
(-0.0104196 -0.0802742 2.49892e-06)
(-0.00842778 -0.0613993 1.93033e-06)
(0.000364142 0.000533591 0.542451)
(-0.0130513 -0.102624 0.000225127)
(0.000337089 0.000511441 0.515736)
(-0.0145095 -0.110484 0.000249995)
(0.00063262 0.000729502 0.58723)
(-0.0131507 -0.131173 0.000350867)
(0.000865193 0.00118753 0.588387)
(-0.012263 -0.141051 0.00117205)
(0.0526229 0.248113 -2.0812e-05)
(0.0392125 0.178339 -5.87886e-06)
(0.0395274 0.17979 -1.51648e-05)
(0.0464503 0.202299 -1.18026e-05)
(0.0457414 0.201482 -8.17331e-06)
(0.0459799 0.202542 -1.54702e-05)
(0.0600948 0.220299 1.51419e-05)
(0.0241274 0.120006 -1.01214e-05)
(0.0215932 0.109561 -8.97858e-06)
(0.0309798 0.112334 1.16837e-05)
(0.0263947 0.0928265 3.16852e-06)
(-0.00623131 -0.0285546 0.000212591)
(-0.00534581 -0.0254859 0.000242086)
(0.000286711 0.000393137 0.325905)
(0.000291647 0.000366429 0.319362)
(0.000284067 0.000357438 0.315525)
(0.000290265 0.000375802 0.362276)
(0.0934411 0.318293 0.000305224)
(0.159642 0.558014 0.00383301)
(-3.76475e-05 0.00044829 0.341327)
(0.000217891 1.64162e-05 0.308415)
(0.000120291 0.00014297 0.109512)
(0.0816766 0.286635 7.59714e-05)
(0.284326 0.660506 -4.66911e-06)
(0.167079 0.589022 6.15506e-05)
(0.165396 0.583125 -2.56703e-05)
(0.0757274 0.353464 -8.02352e-06)
(0.0764373 0.356843 -6.162e-06)
(0.130928 0.625049 -1.93706e-05)
(0.0744531 0.331404 -5.21862e-06)
(0.0775897 0.351983 -4.28333e-06)
(0.0786774 0.356881 -5.85686e-06)
(0.0744155 0.331313 2.12164e-07)
(-0.00461145 -0.0325261 7.2338e-08)
(-0.00581963 -0.0409341 1.72353e-07)
(0.150503 0.796809 -1.23538e-05)
(0.273356 0.471351 0.0114732)
(0.000674552 0.00269514 0.877124)
(0.000350901 0.00123094 0.418377)
(0.0502772 0.146227 0.000107797)
(-0.011859 -0.0739443 0.000250554)
(-0.0119288 -0.0752576 0.000396232)
(0.000719801 0.00126774 0.689245)
(0.000222215 4.7007e-05 0.314245)
(0.0966903 0.496051 0.000817684)
(0.00037338 -3.41045e-05 0.378655)
(0.140712 0.739226 0.00516216)
(0.000421112 0.000538024 0.351646)
(0.000276065 0.000379904 0.334578)
(-0.000483953 3.83496e-05 0.358042)
(6.83939e-05 0.000239086 0.113568)
(0.0808055 0.385901 -0.000261801)
(0.103518 0.480711 0.000722244)
(0.000373428 5.26609e-05 0.208154)
(9.40214e-05 0.000342804 0.10886)
(0.169934 0.713886 0.00167439)
(0.0842461 0.313161 -1.77812e-05)
(0.0802735 0.30729 -2.12523e-05)
(0.0958479 0.390729 -2.88432e-05)
(0.0672264 0.270762 -7.95634e-06)
(-0.819469 2.61987 -0.0201184)
(-0.052462 1.28519 -3.04184e-05)
(-0.16408 1.53375 0.000667198)
(0.0724556 1.094 -0.000101048)
(0.0544511 1.16486 -5.6035e-05)
(-0.00242841 1.13547 -2.29872e-05)
(0.030131 1.13847 -3.95539e-05)
(0.10427 1.1447 -5.15202e-05)
(0.142058 1.83435 -8.13639e-05)
(0.137856 1.77981 -9.967e-05)
(0.106528 1.16976 -6.66023e-05)
(0.115642 1.18146 -6.71331e-05)
(0.119413 1.11103 1.36322e-07)
(0.121854 1.13417 -8.99987e-05)
(0.115269 1.17716 -2.90324e-06)
(0.0611473 0.2533 4.19777e-06)
(0.0556229 0.220656 1.77732e-06)
(0.0868053 0.340981 9.60472e-06)
(0.126461 0.856483 -6.16763e-05)
(0.127888 0.805267 -2.34298e-05)
(-0.000585175 -0.000237729 0.576772)
(0.000608637 0.00200405 0.908789)
(0.00170377 0.00591593 0.000128945)
(7.95114e-05 0.00247846 0.751508)
(0.00291219 0.0102542 0.000126616)
(0.000263777 0.00984803 0.275824)
(-0.061189 0.587698 -0.00084686)
(0.007206 -0.00368466 1.75778)
(0.000247329 0.00036023 0.306316)
(0.0143124 0.521541 -0.000591188)
(0.000643741 -5.19575e-05 0.247089)
(0.0234914 0.490777 -0.000420282)
(0.061999 0.533026 -0.00058603)
(0.0617279 0.52311 -0.000547226)
(0.000284502 0.000299725 0.246924)
(0.000309068 0.000326936 0.271608)
(0.0581256 0.535851 -0.000487055)
(0.0528283 0.532491 -0.00019605)
(0.0477914 0.522652 0.00113856)
(1.75524e-05 -0.00080367 0.226789)
(-0.019436 -0.106633 0.00113666)
(-2.86029e-05 0.000494082 0.51071)
(0.0922128 0.512526 -0.000148546)
(0.000282133 0.000363582 0.325514)
(0.000285412 0.00036642 0.326968)
(0.479681 -0.191131 -0.00392007)
(0.22589 0.213559 0.00232506)
(0.000172644 6.3618e-05 0.0808109)
(-0.0519612 -0.511085 0.000533757)
(-0.0677974 -0.547814 0.000578926)
(-0.055277 -0.542902 0.000683779)
(-0.0681887 -0.550914 0.000592419)
(-0.0745064 -0.601012 0.00076511)
(-0.0593473 -0.582134 0.000787012)
(-0.0832709 -0.670652 0.000916352)
(0.178471 0.772108 -0.00117282)
(0.449411 2.19984 -0.00315844)
(0.182174 0.788564 -0.00119236)
(0.428449 2.09664 -0.00302429)
(-0.0653809 -0.529209 0.000200857)
(-0.0410626 -0.256071 0.000383856)
(-0.104674 -0.841085 0.00120597)
(-0.046746 -0.291053 0.000439169)
(1.38749 0.919406 -0.000476886)
(1.39301 0.923066 -0.000245278)
(0.235163 1.02092 -0.000244833)
(0.613547 3.0103 -0.00108977)
(0.607951 2.98327 -0.000658367)
(0.22035 0.956579 -0.000304073)
(0.453458 2.6893 -0.000689997)
(0.444284 2.63333 -0.00105595)
(-0.000256041 -0.00490068 2.78762e-06)
(0.000103003 -0.00329785 1.17288e-06)
(0.0230015 0.130236 -4.71251e-05)
(0.0233179 0.131508 -3.15781e-05)
(0.0529112 0.22973 -0.000209686)
(0.0391812 0.178102 -0.000161803)
(0.0630597 0.274527 -0.000288785)
(0.0309029 0.139586 -9.38815e-05)
(-0.108567 -0.873155 0.00130288)
(-0.0688224 -0.499845 0.0007443)
(0.0209966 0.099483 -1.72331e-05)
(-0.00908939 -0.0508869 0.000136557)
(0.0634564 0.231328 -0.000361301)
(0.0714696 0.260506 -0.000383311)
(0.0344828 0.12426 -0.000195808)
(0.0399331 0.143893 -0.00021206)
(0.292642 1.32407 -0.000273667)
(0.174387 0.756675 4.08286e-05)
(0.324568 1.53495 -0.000343749)
(0.142986 0.717726 -5.21584e-05)
(-0.0187421 -0.15779 0.000166566)
(-0.0425179 -0.315327 0.000301642)
(-0.00691753 -0.0505611 -1.47106e-05)
(0.000935847 0.00063983 -7.05244e-07)
(-0.0180019 -0.123524 2.36487e-05)
(-0.0239245 -0.167559 7.33104e-05)
(0.0966644 0.395242 0.000152825)
(0.0835981 0.310763 -6.56999e-05)
(0.0837391 0.31128 -4.18529e-05)
(0.108141 0.44365 -0.000671312)
(0.16512 0.725277 -0.000167299)
(0.141866 0.653767 -4.89911e-06)
(0.172531 0.758387 -0.000152041)
(0.18157 0.846765 -1.03991e-05)
(-0.00274392 1.3484 -9.48645e-05)
(0.0556555 0.840625 -0.000190753)
(-0.00267965 1.27985 -0.000276371)
(0.0641491 0.966651 -0.000144821)
(-0.0637568 1.55837 -0.000117008)
(1.39163 0.923487 -0.000389981)
(-0.0627479 1.53433 -0.000309698)
(0.470364 4.03402 -0.00147791)
(0.0871185 0.342386 -4.90217e-06)
(0.0700932 0.275374 -8.71014e-05)
(0.0566117 0.20755 -5.88474e-05)
(0.0629849 0.23096 1.85627e-05)
(0.0571791 0.299745 -9.40661e-05)
(0.184277 0.909611 -0.00106035)
(0.0221236 0.123335 -6.20222e-05)
(0.047678 0.255867 -5.06703e-05)
(0.890072 5.57178 0.00304016)
(0.410755 2.74518 0.000714216)
(0.0326146 0.118268 -3.62617e-05)
(0.0338113 0.122623 1.63581e-05)
(1.27193 0.844896 0.000286494)
(0.0906461 0.627277 -0.00093095)
(0.251694 0.236058 -0.000231442)
(0.500975 -0.207761 4.41153e-05)
(0.238579 0.224455 -0.000300396)
(0.51938 -0.215762 -0.000220821)
(0.061531 0.225606 1.84103e-05)
(0.0288115 0.101312 1.53136e-05)
(0.0322251 0.116868 1.50294e-05)
(0.284337 0.660528 -2.03223e-05)
(0.274017 0.804342 -6.2968e-05)
(0.00055246 0.00149618 0.742357)
(0.000202334 0.000561644 0.367448)
(0.000369158 -3.20439e-05 0.387897)
(-0.192142 1.78135 -0.000167585)
(-0.0581151 1.42114 -3.38546e-05)
(1.38464 0.923909 -0.00143359)
(0.027131 0.0256421 2.93114e-05)
(0.367536 -0.15105 0.000140352)
(0.375735 -0.152754 0.000608079)
(0.02855 0.0269493 2.16677e-05)
(0.00030158 0.000287966 0.554689)
(0.000246284 0.000130941 0.385085)
(0.000244596 0.000308516 0.345687)
(0.00043207 0.00054818 0.370972)
(-0.090026 -0.724413 0.00101152)
(1.37173 0.908107 -0.00151636)
(1.35906 0.899694 -0.00149358)
(1.33267 0.882187 -0.00145398)
(1.35836 0.899226 -0.00149204)
(0.398053 1.94677 -0.00281733)
(0.17519 0.757276 -0.00114814)
(0.177109 0.766075 -0.00116363)
(0.420604 2.05806 -0.00297552)
(0.271184 1.60148 -0.00228725)
(0.290037 1.71315 -0.00241143)
(-0.0227683 -0.134727 0.000217426)
(-0.0294952 -0.173625 0.000278425)
(-0.0541931 -0.337038 0.000521031)
(-0.0487753 -0.303545 0.000460721)
(-0.039184 -0.229811 0.000375994)
(-0.0320333 -0.188302 0.000302968)
(0.254646 2.16482 -0.00299181)
(0.241715 2.05426 -0.00295529)
(0.0262388 0.0968361 -9.18231e-05)
(0.0248552 0.100428 -0.000123364)
(0.0367245 0.149306 5.24805e-05)
(0.034351 0.127003 -0.000145968)
(0.00254398 0.010407 5.79832e-05)
(0.0298651 0.127989 -1.42579e-05)
(0.0389983 0.168527 -0.000111962)
(0.0241823 0.107913 -5.15359e-06)
(0.0423618 0.156798 -0.000196382)
(0.0469203 0.191289 2.41612e-05)
(0.0366472 0.135544 -0.000160906)
(0.0427934 0.638012 -0.000873122)
(-0.00155911 1.02575 -0.00137885)
(-0.00174197 1.1303 -0.0015172)
(0.0470981 0.702446 -0.000965739)
(-0.0545008 1.3498 -0.00179829)
(1.32143 0.874709 -0.00143189)
(-0.0569825 1.41091 -0.00188304)
(-0.0489417 1.21291 -0.00161303)
(-0.053302 1.32031 -0.00175831)
(1.31882 0.872977 -0.00142976)
(-0.00179368 1.15864 -0.0015554)
(0.0514254 0.768106 -0.00104905)
(-0.0018964 1.21523 -0.00163356)
(0.0484098 0.7225 -0.000964792)
(0.227438 1.3427 -0.0018424)
(0.412731 2.56794 -0.00567253)
(0.23817 1.58528 -0.00225567)
(0.247893 1.46317 -0.00213256)
(0.406837 2.53602 -0.00355166)
(0.379018 2.36159 -0.00339084)
(0.196147 1.30375 -0.00274439)
(-0.0807063 -0.592143 0.000497332)
(-0.101732 -0.818615 0.00121161)
(-0.0657389 -0.436259 0.000664727)
(-0.0556337 -0.346609 0.0005684)
(-0.0791486 -0.530757 0.000724537)
(-0.0520338 -0.325057 0.000553444)
(-0.0222318 -0.123936 0.000241705)
(-0.0430168 -0.252767 0.000450523)
(0.00756748 0.0310034 0.00022082)
(-0.0456942 -0.269801 0.000461512)
(0.231803 1.04127 -0.00161783)
(0.179747 0.776316 -0.00114559)
(0.238111 1.12158 -0.00164311)
(0.177462 0.766691 -0.00114233)
(0.225129 1.01462 -0.00150416)
(0.242279 1.14007 -0.00200609)
(0.368831 1.80188 -0.0027336)
(0.105926 0.414031 -0.000562296)
(0.0893504 0.34916 -0.000506402)
(0.0956121 0.348671 -0.000459701)
(0.0752242 0.274199 -0.000393427)
(0.086713 0.338885 -0.000505235)
(0.0806263 0.315162 -0.000486008)
(0.0555141 0.200164 -0.000260766)
(0.0424916 0.153117 -0.000219442)
(0.12719 0.294756 -0.000353926)
(0.10831 0.250892 -0.000265149)
(-0.0206903 -0.156725 0.000270641)
(-0.0180783 -0.129251 0.000231367)
(0.0816245 0.417036 -0.000900978)
(0.0861815 0.430016 -0.000605777)
(0.124749 0.658297 -0.00157823)
(-0.0193101 -0.190704 0.000234022)
(-0.019897 -0.181288 0.00029832)
(-0.0172321 -0.18945 -1.24352e-05)
(-0.0212875 -0.295002 0.000402001)
(0.0774684 0.370649 -0.000676446)
(0.0820567 0.409481 -0.000565337)
(-0.00351838 -0.014992 7.78277e-05)
(0.00688583 0.0267335 7.77962e-05)
(0.000155497 -0.000199541 7.25288e-05)
(0.0138391 0.0507284 2.54884e-06)
(0.0177609 0.649919 -0.00086257)
(-0.00121618 0.847463 -0.00115674)
(0.0270564 0.569693 -0.000830218)
(0.0362781 0.54229 -0.000830207)
(-0.105862 1.00769 -0.0027916)
(-0.0410975 1.02155 -0.00142284)
(1.23566 0.825093 0.00181347)
(-0.465863 1.51662 -0.00171713)
(-0.0449717 1.11573 -0.00150096)
(-0.141513 1.31844 -0.00170264)
(-0.0115729 -0.0604942 0.000149864)
(-0.00827279 -0.0426246 0.000117626)
(-0.0100995 -0.0517667 0.00013689)
(-0.0097074 -0.0509586 0.00013137)
(-0.0247528 -0.13584 0.000132218)
(0.000684281 0.000808676 0.393364)
(0.0586939 0.394676 -0.000572636)
(0.0927469 0.641931 -0.00104704)
(0.0608399 0.408832 -0.000657581)
(0.127188 0.46411 -0.000570895)
(0.154297 0.56331 -0.000706027)
(0.0733125 0.264513 -0.000321155)
(0.0619802 0.216769 -0.000270692)
(0.0815375 0.285705 -0.000539036)
(0.0894558 0.322958 -0.000414973)
(0.446979 -0.186822 -0.00272286)
(0.215315 0.197706 0.000659166)
(0.262308 0.243953 -4.09727e-05)
(0.52192 -0.217779 -0.00104712)
(0.238035 1.03155 -0.00148521)
(0.580965 2.84626 -0.00400968)
(0.241054 1.04468 -0.0014916)
(0.56423 2.76424 -0.00392227)
(-0.0655365 -0.530285 0.000282164)
(-0.000495032 -0.00632865 5.78465e-06)
(-0.000375542 -0.00559335 4.02943e-06)
(0.240115 1.04231 -0.000538468)
(0.63842 3.13201 -0.00207901)
(0.209736 0.910456 -0.000568664)
(-0.0608137 -0.441886 0.000633754)
(0.177963 0.782563 -0.000271958)
(0.144947 0.668979 -0.000260926)
(0.178375 0.784393 -0.000312151)
(0.144701 0.667795 -0.000231903)
(0.0553694 0.20292 -7.10378e-05)
(0.0574787 0.210612 -7.52411e-05)
(-0.0328728 -0.241262 8.39388e-05)
(0.164224 0.812897 -0.000311645)
(0.0647126 0.340372 -0.000128181)
(0.0292567 0.106045 -3.78716e-05)
(0.0305384 0.110667 -4.05599e-05)
(1.39328 0.923379 -0.000241141)
(0.0194092 0.0182195 1.16867e-06)
(0.333833 -0.138531 -3.9858e-06)
(0.0172896 0.0162165 -5.05163e-06)
(0.336013 -0.139377 -6.27687e-06)
(-0.0205003 -0.129511 0.000188787)
(-0.0228592 -0.144031 0.000211329)
(-0.0390159 -0.243474 0.000364371)
(-0.0947824 -0.762295 0.00107375)
(-0.0340906 -0.213161 0.000317242)
(0.184189 0.797454 -0.00120533)
(0.195886 0.848823 -0.00126841)
(0.105966 0.463686 -0.000601123)
(0.0798313 0.366406 -0.000472728)
(0.109464 0.479102 -0.00062549)
(0.0765227 0.351089 -0.000447896)
(0.0462718 0.211045 -0.000221275)
(0.0717202 0.312736 -0.000352736)
(0.07863 0.343205 -0.000404647)
(0.0521695 0.238391 -0.000268867)
(0.0579265 0.211848 -0.000362435)
(0.0563128 0.20581 -0.000351397)
(0.0616833 0.224891 -0.000356654)
(0.0578937 0.21117 -0.000346539)
(0.0159269 0.0816991 -8.4461e-05)
(0.0719962 0.353322 -0.000438331)
(-0.0682863 -0.495816 0.000731649)
(0.0287156 0.138106 -9.05399e-05)
(-0.00524025 -0.0303478 9.67754e-05)
(0.0358945 0.173907 -0.00015373)
(0.0314444 0.113726 -0.00020014)
(0.0300824 0.108717 -0.000191168)
(0.0332665 0.119889 -0.00019242)
(0.0307135 0.110741 -0.000185429)
(1.33326 0.882552 -0.0014507)
(1.30162 0.861621 -0.00133702)
(0.130357 0.122782 -0.000199476)
(0.359787 -0.149411 0.000136126)
(0.371331 -0.154204 0.00014219)
(0.118165 0.111286 -0.000184593)
(0.47981 -0.199009 0.00013117)
(0.22227 0.209316 -0.000305877)
(0.207986 0.195931 -0.000293194)
(0.459869 -0.190846 0.000140891)
(8.49324e-05 -0.0126372 8.30593e-06)
(0.000113902 -0.010456 9.52892e-06)
(-0.0514035 -0.505876 0.00045058)
(2.0603e-05 -0.0172941 1.91472e-05)
(-3.3793e-05 -0.0213655 1.90467e-05)
(-0.0665165 -0.53776 0.000485478)
(-0.0536247 -0.527001 0.000624224)
(-5.70856e-05 -0.0228646 3.18865e-05)
(-8.22399e-05 -0.0247385 3.12215e-05)
(-0.070665 -0.570512 0.000676483)
(-0.0711734 -0.574548 0.000688198)
(-8.87833e-05 -0.0250328 3.80182e-05)
(-0.0582184 -0.571293 0.000755113)
(-0.000391949 -0.0472969 6.55006e-05)
(-0.0801811 -0.646113 0.000863057)
(1.38704 0.918346 -0.00154818)
(1.3853 0.917178 -0.0015458)
(1.38321 0.91577 -0.00154129)
(1.38739 0.918553 -0.00154753)
(0.22861 0.990936 -0.00143981)
(0.529285 2.59302 -0.00369732)
(0.553953 2.71397 -0.00385324)
(0.19244 0.834158 -0.00123397)
(0.179342 0.776016 -0.00117646)
(0.236478 1.06676 -0.00158158)
(0.267846 1.26305 -0.00183397)
(0.442728 2.16695 -0.0031148)
(0.180855 0.782705 -0.0011846)
(0.243955 1.10093 -0.00162416)
(0.257028 1.21165 -0.00176806)
(0.435115 2.12947 -0.00307271)
(1.39036 0.921205 -0.000860008)
(1.39034 0.921244 -0.000709903)
(1.38654 0.918766 -0.000508111)
(1.38905 0.920397 -0.000684954)
(0.433398 2.56842 -0.00112921)
(0.444107 2.63195 -0.00135648)
(-0.000284078 -0.00504157 2.96564e-06)
(-0.0654943 -0.529982 0.000261522)
(-0.000353135 -0.00545455 3.70004e-06)
(0.0228355 0.129271 -8.51762e-05)
(0.0229556 0.129983 -7.2731e-05)
(0.0229917 0.130205 -5.25251e-05)
(0.0229678 0.13006 -6.79184e-05)
(0.224582 0.974896 -0.000339688)
(0.243827 1.05841 -0.000482541)
(0.653829 3.20775 -0.00150638)
(-0.0546772 -0.363175 0.000529652)
(-0.0428478 -0.26706 0.000400842)
(-0.0643364 -0.467255 0.000675727)
(-0.0448729 -0.279523 0.00042067)
(-0.0593435 -0.393857 0.000579404)
(0.488584 4.18112 -0.00160892)
(0.482384 4.12876 -0.00128854)
(0.0835625 0.310627 -7.50354e-05)
(0.108225 0.444024 0.000462014)
(0.10843 0.444873 -0.000712277)
(0.0835663 0.310642 -9.91414e-05)
(0.140937 0.649783 -0.000202122)
(0.176186 0.77462 -0.000194137)
(0.177507 0.78052 -0.000235671)
(0.144118 0.664953 -0.00020322)
(0.108455 0.444971 0.000416922)
(0.0836498 0.31095 -0.00013081)
(0.108547 0.445337 -0.000757937)
(0.0835744 0.310673 -0.000107966)
(0.0541985 0.819448 -0.000192697)
(-0.00257205 1.22411 -0.000300781)
(-0.00224656 1.06263 -0.000340139)
(0.0553848 0.837069 -0.000263511)
(-0.054306 1.32756 -0.000447116)
(1.3899 0.921008 -0.000388771)
(-0.0519815 1.27127 -0.00050722)
(-0.061203 1.4964 -0.000345963)
(-0.0558829 1.36606 -0.000425553)
(1.39177 0.922243 -0.000348119)
(-0.00220359 1.03422 -0.000346487)
(0.0636008 0.960311 -0.000406807)
(-0.00229 1.06263 -0.00040343)
(0.0572037 0.864372 -0.000291182)
(0.317575 1.43699 -0.000303853)
(0.226679 0.984067 -0.000267304)
(0.619212 3.03842 -0.000946015)
(0.3562 1.68427 -0.000590688)
(0.34451 1.62928 -0.000296667)
(0.622481 3.05467 -0.000893021)
(0.219431 0.952605 -0.000287826)
(0.312553 1.41409 -0.000471143)
(0.0661489 0.259785 -8.29541e-05)
(0.065261 0.25625 -7.76099e-05)
(0.0586041 0.214782 -6.61324e-05)
(0.0587933 0.215416 -7.60341e-05)
(0.0664034 0.260743 -8.03454e-05)
(0.783662 4.90432 -0.00162328)
(0.466338 2.76507 -0.000877912)
(0.785142 4.9142 -0.00155842)
(0.494361 3.30599 -0.00124794)
(0.499145 3.33791 -0.00104275)
(0.459411 2.72367 -0.000936178)
(-0.0310642 -0.228698 5.62936e-05)
(-0.0192592 -0.130563 4.70222e-05)
(-0.000164783 -0.00441975 2.40976e-06)
(-0.018568 -0.126634 3.26117e-05)
(-0.000154594 -0.00453988 2.3034e-06)
(0.0637928 0.335008 -7.91822e-05)
(0.161418 0.798163 -0.000191213)
(0.163952 0.811237 -0.000239254)
(0.0490249 0.264215 -9.78485e-05)
(0.0230551 0.130476 -4.17295e-05)
(0.0488788 0.262913 -6.42517e-05)
(0.0230518 0.130291 -3.58154e-05)
(0.0342079 0.123999 -4.2544e-05)
(0.0315674 0.114388 -4.25597e-05)
(0.0656527 0.239318 -0.000367673)
(0.068128 0.248324 -0.000374129)
(0.0318284 0.111201 -0.000176087)
(0.0359807 0.129651 -0.000200323)
(0.037759 0.131925 -0.000193479)
(0.0376763 0.135756 -0.000205066)
(0.273566 0.803084 -0.000169951)
(0.273917 0.804056 -0.000116759)
(0.284832 0.661742 -0.000113753)
(0.284844 0.661765 -0.000103444)
(-0.195955 1.81645 -0.000186504)
(-0.0642187 1.5708 -0.000224384)
(1.39263 0.923325 -0.000278517)
(-0.841677 2.73765 -0.00045849)
(-0.0638182 1.56076 -0.000271425)
(-0.19561 1.81227 -0.000346735)
(0.0582872 0.213787 -2.48437e-05)
(0.0627188 0.230026 1.17508e-05)
(0.0331433 0.120239 -7.68807e-06)
(0.0309687 0.108901 -3.52653e-05)
(0.0298837 0.10508 1.80908e-05)
(0.0348262 0.12633 1.32752e-05)
(0.409534 2.42222 -0.00341642)
(0.389692 2.30454 -0.00327887)
(0.000737355 0.00121938 1.12524e-05)
(-0.00194503 -0.0142993 3.44927e-05)
(-0.0269938 -0.169481 0.000250514)
(-0.0239302 -0.150624 0.000221204)
(-0.00663466 -0.0414254 7.53553e-05)
(-0.00317206 -0.0213975 4.48575e-05)
(1.37018 0.907091 -0.00151542)
(1.3789 0.912885 -0.00153017)
(1.38449 0.916612 -0.00154234)
(1.37952 0.913299 -0.00153142)
(-0.0203535 -0.120763 0.000196082)
(-0.0147155 -0.0881599 0.000145877)
(0.352819 2.08553 -0.00293794)
(0.379743 2.24545 -0.00319123)
(-0.0933456 -0.750851 0.00105523)
(-0.0283932 -0.178094 0.000263459)
(-0.0323689 -0.202564 0.000301098)
(-0.00823931 -0.0507066 8.90924e-05)
(-0.0127259 -0.0766543 0.000128546)
(0.197767 0.857012 -0.00126449)
(0.519514 2.54507 -0.00364823)
(0.191819 0.831384 -0.00122813)
(0.481491 2.3581 -0.00340099)
(0.284144 2.41647 -0.00335846)
(0.292448 2.48749 -0.00346838)
(0.0674277 0.275597 -7.02555e-06)
(0.054511 0.201993 -0.000269099)
(0.0573023 0.212376 -0.000285631)
(0.0635463 0.259641 -0.000664865)
(0.101035 0.441957 -0.000566408)
(0.0680287 0.311789 -0.000386668)
(0.0966745 0.422744 -0.000534705)
(0.0720497 0.330391 -0.000416666)
(0.0605427 0.224432 -0.000304719)
(0.0582309 0.215831 -0.000291258)
(0.0721556 0.295038 -1.31367e-05)
(-0.00219408 1.37541 -0.00185449)
(0.0576708 0.861918 -0.00117609)
(0.0589543 0.88121 -0.00120226)
(-0.00214423 1.34907 -0.00181758)
(-0.0641233 1.58655 -0.00212641)
(1.3687 0.90609 -0.00150834)
(-0.0648285 1.60379 -0.00215301)
(-0.00221174 1.38445 -0.00186681)
(0.0603926 0.902865 -0.00123284)
(-0.00224082 1.39741 -0.00188705)
(0.0593744 0.887532 -0.00121108)
(-0.0637013 1.57619 -0.00211209)
(1.36612 0.904377 -0.00150427)
(-0.0625336 1.54749 -0.00207153)
(0.318231 2.70757 -0.00374459)
(0.312392 2.65767 -0.00367902)
(0.0441801 0.163563 -0.000207607)
(0.0484759 0.179544 -0.000233202)
(0.0570645 0.232995 -0.000587628)
(0.0533084 0.19752 -0.000262106)
(0.0617326 0.252184 1.96295e-07)
(0.0499331 0.184963 -0.000241838)
(0.085287 0.37255 -0.000454126)
(0.0626521 0.286915 -0.00034778)
(0.0904885 0.395481 -0.000491709)
(0.0579428 0.265121 -0.00031223)
(-0.0576571 1.42745 -0.00190614)
(-0.0599067 1.48291 -0.00198023)
(1.34639 0.891283 -0.00147228)
(0.0522606 0.780681 -0.00106642)
(-0.00192875 1.23119 -0.00165595)
(-0.00202582 1.28619 -0.00172938)
(0.0545911 0.815642 -0.00111311)
(-0.00205542 1.30229 -0.00175165)
(0.0571201 0.853619 -0.00116497)
(0.0553845 0.827552 -0.00112891)
(-0.00212115 1.33775 -0.00180225)
(-0.0605733 1.49931 -0.00200299)
(1.35173 0.894822 -0.00147947)
(-0.0620636 1.53597 -0.00205603)
(0.0752248 0.294582 -0.000474034)
(0.0754173 0.295197 -0.000474577)
(0.055601 0.203021 -0.000343941)
(0.0559154 0.204311 -0.000348536)
(0.0755001 0.295841 -0.000475465)
(0.240982 1.1354 -0.00166717)
(0.405209 1.98214 -0.00289707)
(0.226212 1.01972 -0.0015161)
(0.175144 0.757254 -0.00115671)
(0.176185 0.761929 -0.00116076)
(0.233469 1.05303 -0.00156322)
(0.413446 2.0228 -0.00292477)
(0.252746 1.19133 -0.00174268)
(0.0767702 0.30025 -0.000476153)
(0.0763759 0.298757 -0.000475778)
(0.0754141 0.295135 -0.000473881)
(0.0556422 0.203125 -0.000342804)
(0.0571134 0.208364 -0.000344958)
(0.264209 1.75898 -0.00247212)
(0.421655 2.62884 -0.00371162)
(0.277452 1.63857 -0.00231804)
(0.284026 1.67754 -0.00237106)
(0.452171 2.81958 -0.00395398)
(0.442396 2.75857 -0.00387595)
(0.270852 1.80335 -0.00252131)
(9.22617e-05 -0.00224311 3.37529e-05)
(-0.0248279 -0.146638 0.000235672)
(0.0558134 0.272936 -0.00031333)
(0.00794934 0.0395253 -1.89286e-05)
(-0.02726 -0.160702 0.000257754)
(-0.00747093 -0.0433434 9.79903e-05)
(-0.0649279 -0.430716 0.000648233)
(-0.0524329 -0.326107 0.000500472)
(-0.0654942 -0.475585 0.000691361)
(-0.0506439 -0.315056 0.000479271)
(-0.0609337 -0.404321 0.000598134)
(0.463477 2.89029 -0.00404703)
(0.472934 2.94944 -0.00412302)
(0.294535 1.9616 -0.00272737)
(0.288484 1.92116 -0.00267396)
(-0.0193269 -0.107931 0.000206865)
(-0.0367792 -0.215803 0.000349009)
(0.0491585 0.239873 -0.000260789)
(0.00464204 0.0220383 8.52128e-06)
(0.0429525 0.209024 -0.00021253)
(-0.0343666 -0.20181 0.000324391)
(-0.0104936 -0.0597724 0.000124115)
(0.0293083 0.105803 -0.000184371)
(0.0297336 0.107427 -0.000188747)
(0.0293097 0.105779 -0.000183438)
(0.0301934 0.108888 -0.000184338)
(0.122642 0.359002 -0.000441528)
(0.148764 0.435678 -0.000570619)
(0.197374 0.457724 -0.000639425)
(0.192105 0.445495 -0.000620145)
(0.164517 0.381466 -0.000519055)
(0.172761 0.400609 -0.000553099)
(0.155795 0.456323 -0.000604894)
(-0.613024 1.99722 -0.00253998)
(1.32825 0.879233 -0.00144053)
(-0.056256 1.39303 -0.00185751)
(-0.169505 1.57829 -0.00208261)
(-0.585459 1.90759 -0.00248719)
(-0.514842 1.6769 -0.00203452)
(-0.533221 1.73712 -0.00221378)
(-0.146727 1.36694 -0.0017984)
(-0.0504468 1.24999 -0.00166067)
(1.3119 0.868369 -0.001396)
(-0.568137 1.8513 -0.00235914)
(0.0875164 0.319073 -0.000428612)
(0.080511 0.29351 -0.000411106)
(0.143893 0.135543 -0.000215892)
(0.401504 -0.166737 0.000157236)
(0.385653 -0.160152 0.0001496)
(0.157918 0.148766 -0.000230998)
(0.0541418 0.189296 -0.000243314)
(0.050488 0.181985 -0.000242029)
(0.0459041 0.165438 -0.000230422)
(0.04053 0.141614 -0.000201145)
(0.189237 0.178285 -0.000269623)
(0.419705 -0.174286 0.000155157)
(0.438018 -0.181854 0.000154173)
(0.173882 0.163817 -0.00024856)
(0.62233 3.05253 -0.0021251)
(0.225378 0.977985 -0.000633482)
(0.247128 1.07225 -0.000786787)
(0.645183 3.16399 -0.00238572)
(0.221572 0.960992 -0.00113916)
(0.637102 3.12383 -0.00335295)
(0.253394 1.09927 -0.00119917)
(0.65317 3.20226 -0.00373525)
(0.241768 1.0483 -0.00138013)
(0.674319 3.30487 -0.00428274)
(0.236898 1.02718 -0.00131111)
(0.644074 3.15667 -0.00418014)
(-0.0656237 -0.530914 0.000320866)
(-0.0330985 -0.242703 0.000158048)
(-0.0472959 -0.344562 0.000476159)
(-0.0594885 -0.432342 0.000618479)
(-0.0974834 -0.78381 0.00110855)
(-0.0516841 -0.508479 0.000499856)
(-0.00515589 -0.156233 0.000161494)