/*--------------------------------*- C++ -*----------------------------------*\
| =========                 |                                                 |
| \\      /  F ield         | OpenFOAM: The Open Source CFD Toolbox           |
|  \\    /   O peration     | Version:  2306                                  |
|   \\  /    A nd           | Website:  www.openfoam.com                      |
|    \\/     M anipulation  |                                                 |
\*---------------------------------------------------------------------------*/
FoamFile
{
    version     2.0;
    format      ascii;
    arch        "LSB;label=32;scalar=64";
    class       volScalarField;
    location    "0.55";
    object      p;
}
// * * * * * * * * * * * * * * * * * * * * * * * * * * * * * * * * * * * * * //

dimensions      [0 2 -2 0 0 0 0];

internalField   nonuniform List<scalar> 
111542
(
61.8002
63.0846
66.1719
71.2404
78.3685
87.7665
99.5977
113.904
130.215
147.143
162.166
171.302
170.48
158.39
137.941
114.779
92.9424
74.0659
58.392
45.7918
35.8495
28.2123
22.4759
18.125
14.8226
12.2911
10.2483
8.65834
7.46932
6.55232
5.82331
5.22538
4.7704
4.38757
4.02488
3.6401
3.17961
2.63857
1.91716
0.926984
60.6496
61.892
64.946
69.9541
77.0752
86.6241
98.9754
114.392
132.729
152.95
172.419
185.594
184.851
168.759
142.931
115.938
92.0518
72.1248
56.0301
43.3893
33.6821
26.3659
20.8919
16.8625
13.8387
11.4937
9.65318
8.22983
7.13377
6.27147
5.5786
5.01503
4.5561
4.16164
3.79178
3.40843
2.96816
2.42598
1.71305
0.775911
58.3732
59.5468
62.4585
67.2863
74.2989
84.0033
97.114
114.45
136.696
163.724
192.254
213.779
214.018
188.749
152.49
118.938
91.1685
69.1266
52.1783
39.4111
29.9322
23.2778
18.5275
15.0126
12.1299
9.78516
8.01444
6.72302
5.76777
5.04475
4.49179
4.06633
3.73299
3.4581
3.20664
2.94146
2.61811
2.17958
1.55301
0.663659
55.0361
56.0828
58.7026
63.1208
69.7173
79.2158
92.7686
112.087
139.602
178.6
213.707
256.588
262.465
221.679
169.243
128.295
94.7928
69.3412
50.7984
37.3691
23.6268
17.3508
14.9413
13.505
11.4737
9.37766
7.70268
6.43856
5.45126
4.66296
4.03693
3.54251
3.14984
2.82823
2.54886
2.27936
1.97441
1.56974
0.968703
0.0488284
50.7658
51.6064
53.7336
57.3893
63.0075
71.4293
84.1024
103.463
133.567
178.4
255.546
342.157
366.245
258.009
172.694
123.5
83.6544
56.9035
39.4453
28.2387
20.7698
6.42631
5.38685
5.80635
5.16152
4.37588
3.8212
3.41109
3.06642
2.77613
2.54156
2.355
2.20688
2.08385
1.97388
1.86081
1.71182
1.46797
0.998964
-0.0246476
45.7786
46.3262
47.7375
50.2138
54.127
60.2087
69.7923
85.3437
111.658
166.472
260.498
456.249
621.404
246.617
171.315
113.442
66.1493
40.2466
25.2146
16.172
12.7868
15.5788
14.0389
8.76352
5.31514
3.66998
2.76967
2.12225
1.63094
1.27987
1.03843
0.872725
0.759641
0.683685
0.633737
0.599601
0.566681
0.521131
0.464183
0.507052
40.3895
40.5729
41.0826
42.0197
43.5627
46.05
50.0709
56.6221
67.4208
106.954
183.204
416.228
1952.36
-423.928
196.1
79.0376
30.2872
15.3028
7.63925
-2.21653
-7.23154
13.7727
13.9707
8.76933
5.55764
4.3124
3.72907
3.26824
2.87625
2.57119
2.33834
2.15326
2.00214
1.87652
1.77185
1.68404
1.60093
1.51642
1.43265
1.41837
34.9953
34.785
34.3136
33.5532
32.435
30.7887
28.2171
23.7811
15.0946
17.4348
0.755886
-159.504
-998.293
-1052.34
-312.853
-102.081
-47.2675
-26.7449
-17.332
-10.9017
-3.57371
-8.26413
-6.08391
-4.30149
-3.38783
-2.48146
-1.60581
-0.914943
-0.397765
0.00766561
0.337658
0.608043
0.829929
1.01143
1.15759
1.26775
1.32629
1.30104
1.12346
0.661882
30.0153
29.4556
28.0602
25.7072
22.1347
16.7903
8.65722
-4.15632
-25.2816
-48.4924
-122.128
-266.961
-477.931
-507.808
-321.966
-176.777
-101.83
-62.1576
-39.8477
-25.6856
-15.4527
-8.59025
-4.53243
-1.63527
0.121182
1.21948
1.99451
2.53416
2.88196
3.09361
3.21485
3.27367
3.28611
3.26077
3.19885
3.09397
2.92166
2.63169
2.12501
1.20213
25.8916
25.0237
22.8734
19.2473
13.7732
5.73182
-6.07806
-23.6281
-50.2095
-91.4513
-149.348
-222.47
-288.493
-297.329
-240.079
-166.899
-111.267
-75.3759
-52.0382
-35.8641
-24.3817
-16.6768
-11.6086
-8.00254
-5.42927
-3.59234
-2.22214
-1.17154
-0.367112
0.248543
0.724636
1.09644
1.38527
1.60217
1.74734
1.81401
1.77794
1.59441
1.19976
0.543148
22.9401
21.8599
19.1923
14.7123
8.00747
-1.63618
-15.3185
-34.5339
-61.1624
-97.1051
-142.407
-191.947
-231.036
-238.691
-208.591
-159.77
-115.122
-82.361
-59.2816
-42.4578
-29.9537
-20.7939
-14.1113
-9.21953
-5.64492
-3.04784
-1.15298
0.23633
1.2493
1.97874
2.49668
2.85651
3.09387
3.22882
3.26088
3.2003
3.02247
2.67868
2.09325
1.13119
21.4018
20.2266
17.2833
12.4002
5.08907
-5.26537
-19.678
-39.2966
-65.2974
-98.0798
-136.216
-174.371
-202.585
-209.163
-189.766
-153.831
-116.17
-85.4295
-62.5093
-45.394
-32.4717
-22.8192
-15.7436
-10.6061
-6.92146
-4.26451
-2.33441
-0.921955
0.116251
0.87978
1.44088
1.85117
2.14616
2.3503
2.40961
2.39883
2.27499
1.98556
1.47759
0.694819
61.3253
62.5511
65.5633
70.4684
77.3562
86.4257
97.8689
111.681
127.396
143.724
158.227
167.046
166.175
154.444
134.604
112.061
90.7925
72.3606
57.0593
44.752
35.0882
27.643
21.9937
17.7395
14.5099
12.0008
10.0178
8.47677
7.30109
6.39633
5.68782
5.12528
4.67761
4.30057
3.95169
3.59087
3.17401
2.65345
1.95001
0.963584
60.1831
61.3789
64.3366
69.1816
76.0649
85.2892
97.2199
112.104
129.804
149.346
168.194
181.053
180.174
164.529
139.457
113.209
89.9125
70.4419
54.7321
42.4218
32.9883
25.8256
20.4309
16.4767
13.5225
11.2253
9.42379
8.02963
6.9528
6.10814
5.43473
4.89199
4.4488
4.07012
3.72103
3.36465
2.95917
2.45107
1.76959
0.837489
57.9274
59.0545
61.8662
66.532
73.3062
82.6771
95.3375
112.086
133.597
159.775
187.442
208.333
208.752
184.214
148.986
116.329
89.1661
67.5663
51.0056
38.6035
29.4792
22.9131
18.127
14.629
11.8179
9.55176
7.84771
6.61073
5.69809
5.00647
4.47582
4.0655
3.74202
3.47439
3.23244
2.98258
2.68376
2.27714
1.6789
0.774245
54.6225
55.6231
58.1464
62.4086
68.7724
77.9377
91.0258
109.712
136.389
174.32
209.92
252.091
257.929
217.704
166.465
126.289
93.2124
68.0668
49.8124
36.6716
23.1342
16.9912
14.4811
12.977
10.9366
8.87312
7.25631
6.05899
5.13512
4.40254
3.82425
3.36972
3.01122
2.72084
2.47362
2.24187
1.98629
1.64308
1.10455
0.19331
50.3963
51.1936
53.2342
56.7505
62.1586
70.274
82.5104
101.261
130.534
175.378
251.49
337.223
361.054
253.859
170.696
122.241
82.5015
55.8198
38.5251
27.5104
20.062
5.4154
4.77354
5.53244
5.02016
4.28432
3.76829
3.38469
3.04609
2.74401
2.48604
2.26952
2.09081
1.94186
1.81594
1.70392
1.58294
1.39951
1.02217
0.0965117
45.4636
45.9732
47.3153
49.6819
53.4304
59.2724
68.5153
83.5931
109.272
163.953
257.627
452.194
617.389
243.756
171.002
113.335
65.5626
39.4898
24.5614
15.5781
11.1949
11.2526
10.6721
6.54816
3.78251
2.56665
1.9765
1.55328
1.21417
0.960372
0.779044
0.649872
0.561295
0.505447
0.479299
0.480756
0.507965
0.56032
0.647797
0.846617
40.1366
40.292
40.7555
41.6229
43.0668
45.4189
49.2655
55.6135
66.2225
105.614
181.519
411.916
1945.93
200.974
80.2803
30.59
14.7649
6.86153
-2.67907
-8.62637
14.5435
13.8892
8.32682
5.03773
3.75336
3.1334
2.64905
2.2445
1.93049
1.6896
1.49829
1.34601
1.22641
1.13956
1.08668
1.0673
1.08273
1.1354
1.22856
34.7907
34.5808
34.0889
33.3026
32.1588
30.4957
27.9374
23.5979
15.1939
17.5942
1.14063
-159.191
-989.329
-1031.78
-308.999
-100.726
-46.3237
-26.3815
-17.3705
-11.1039
-3.56089
-8.32616
-6.59488
-5.0586
-4.06758
-3.03389
-2.07511
-1.32827
-0.766531
-0.326014
0.0307915
0.322801
0.564778
0.766853
0.938732
1.08515
1.1987
1.25183
1.17183
0.778659
29.8832
29.3173
27.9237
25.5893
22.0593
16.8002
8.83307
-3.66957
-24.2303
-47.3085
-119.479
-262.39
-470.834
-497.612
-316.518
-173.591
-99.816
-61.0008
-39.2926
-25.5248
-15.511
-8.99478
-5.05993
-2.20139
-0.3991
0.742031
1.52937
2.06621
2.40814
2.61342
2.72858
2.78309
2.79473
2.77401
2.72516
2.64571
2.51606
2.28984
1.87083
1.06422
25.8023
24.9375
22.8156
19.2415
13.8593
5.97761
-5.56593
-22.6796
-48.5557
-88.6838
-145.052
-216.436
-281.272
-289.803
-233.895
-162.611
-108.546
-73.755
-51.1613
-35.5078
-24.3931
-16.9466
-11.9475
-8.36037
-5.80174
-3.97352
-2.60589
-1.5542
-0.747113
-0.12835
0.351407
0.727827
1.02317
1.24949
1.40986
1.49943
1.49721
1.36153
1.03209
0.461278
22.8839
21.8191
19.189
14.7779
8.20306
-1.23719
-14.6015
-33.3339
-59.2495
-94.2039
-138.268
-186.506
-224.694
-232.377
-203.122
-155.724
-112.384
-80.6136
-58.2351
-41.9146
-29.7747
-20.8648
-14.3141
-9.50568
-5.98955
-3.42853
-1.5524
-0.172506
0.834794
1.56007
2.07498
2.43287
2.66976
2.80722
2.85278
2.80828
2.65463
2.34964
1.82615
0.973917
21.3647
20.1979
17.3114
12.4869
5.3406
-4.79711
-18.8731
-38.006
-63.2907
-95.1946
-132.304
-169.466
-197.029
-203.656
-184.963
-150.006
-113.409
-83.5927
-61.3529
-44.737
-32.1737
-22.7753
-15.8672
-10.8495
-7.22197
-4.5963
-2.68498
-1.28282
-0.249881
0.511031
1.07091
1.48058
1.77393
1.96909
2.06421
2.06901
1.96241
1.70462
1.25185
0.577048
60.3804
61.5184
64.3403
68.9283
75.3601
83.8146
94.4666
107.293
121.854
136.966
150.359
158.451
157.546
146.478
127.777
106.485
86.3275
68.8002
54.2412
42.5422
33.3648
26.2568
20.8128
16.7033
13.5895
11.1722
9.2705
7.78801
6.64715
5.76938
5.08721
4.55059
4.12173
3.76602
3.44803
3.13001
2.7698
2.31524
1.69741
0.827726
59.259
60.3666
63.1292
67.6558
74.0779
82.67
93.7661
107.587
124.006
142.129
159.632
171.474
170.673
155.951
132.347
107.578
85.4777
66.9401
51.9984
40.3275
31.3984
24.5178
19.283
15.4687
12.6428
10.4372
8.69095
7.32577
6.26383
5.43121
4.77217
4.24626
3.8209
3.46563
3.14993
2.84026
2.49709
2.06823
1.48688
0.683766
57.045
58.0833
60.6997
65.0485
71.3563
80.0712
91.8355
107.395
127.395
151.78
177.618
197.339
197.654
174.537
141.454
110.668
84.8138
64.179
48.4227
36.7301
28.2743
21.8868
17.0713
13.6298
10.9518
8.79588
7.14945
5.93724
5.03687
4.35487
3.83535
3.43998
3.1359
2.89542
2.69165
2.49651
2.27306
1.96628
1.48877
0.705457
53.8058
54.7188
57.0551
61.0124
66.9195
75.4246
87.5775
104.961
129.862
165.447
200.566
240.946
246.573
207.979
159.412
121.254
89.3229
65.0024
47.4543
34.9534
21.9629
16.2338
13.6144
11.9625
9.83761
7.71335
6.04123
4.80079
3.85265
3.11568
2.54911
2.11949
1.79653
1.5532
1.36814
1.22064
1.08071
0.894479
0.559496
-0.108815
49.6694
50.3858
52.2591
55.5027
60.4968
68.0012
79.3495
96.821
124.286
167.991
241.252
324.482
347.623
243.211
164.979
118.774
79.5816
53.254
36.3625
25.7649
18.9509
4.2608
4.12832
5.05798
4.397
3.43106
2.73345
2.22739
1.81077
1.46547
1.1915
0.981484
0.829234
0.724692
0.665041
0.648177
0.668315
0.694032
0.614779
0.0428617
44.8397
45.2886
46.498
48.6491
52.0712
57.4318
65.9753
80.0419
104.301
157.716
249.634
441.46
603.677
233.141
171.332
113.65
65.0606
38.2071
23.0406
14.1762
10.2099
6.40938
6.35172
2.77838
0.0677216
-1.25605
-1.89377
-2.28837
-2.55629
-2.71919
-2.80105
-2.83081
-2.81071
-2.75004
-2.64413
-2.48108
-2.23589
-1.86401
-1.26561
-0.13202
39.649
39.7524
40.1287
40.8608
42.1074
44.185
47.6621
53.5541
63.6989
102.457
177.981
409.766
1933.38
220.273
78.6877
30.3121
14.2734
6.17739
-2.91463
-6.68669
13.3166
12.0021
6.10403
2.75729
1.43355
0.771714
0.265402
-0.144289
-0.455307
-0.686498
-0.859445
-0.982689
-1.05466
-1.06816
-1.00891
-0.852287
-0.561665
-0.0684109
0.743115
34.4139
34.1922
33.6649
32.8319
31.6372
29.9332
27.3878
23.2184
15.373
18.1849
3.50989
-150.013
-969.857
-1011.93
-298.919
-95.7523
-44.2098
-25.8066
-17.5611
-11.7083
-4.95838
-8.68917
-7.67861
-6.62323
-5.62303
-4.48029
-3.44293
-2.63542
-2.02091
-1.53795
-1.14669
-0.824121
-0.552603
-0.317108
-0.0956302
0.126892
0.362409
0.603268
0.794621
0.726085
29.6349
29.0666
27.6877
25.3917
21.9441
16.8506
9.20704
-2.67525
-22.0712
-44.1702
-112.626
-249.662
-451.702
-478.66
-303.121
-165.467
-95.2687
-58.6625
-38.2929
-25.3481
-15.9191
-9.94858
-6.1861
-3.3721
-1.54821
-0.38029
0.429598
0.989974
1.35633
1.5845
1.72233
1.80099
1.84107
1.85561
1.85734
1.85056
1.82682
1.75155
1.53429
0.960385
25.6532
24.8061
22.7361
19.2665
14.0679
6.49875
-4.52
-20.7616
-45.2038
-82.9998
-136.114
-203.726
-265.729
-274.421
-221.642
-154.264
-103.352
-70.6913
-49.4841
-34.7836
-24.3702
-17.4866
-12.5105
-8.89931
-6.39123
-4.61438
-3.26298
-2.20261
-1.37632
-0.734977
-0.230942
0.170604
0.493378
0.749022
0.94768
1.08877
1.15825
1.12128
0.916848
0.467583
22.8036
21.769
19.2192
14.956
8.62914
-0.412848
-13.1502
-30.9225
-55.4155
-88.3731
-129.92
-175.543
-211.966
-219.673
-192.339
-147.73
-106.955
-77.0955
-56.0475
-40.6784
-29.235
-20.8075
-14.4805
-9.80892
-6.41626
-3.94918
-2.12728
-0.772059
0.227815
0.955979
1.48088
1.85413
2.11169
2.27552
2.35839
2.36129
2.27024
2.05023
1.63769
0.914894
21.3175
20.1893
17.397
12.7395
5.87242
-3.82959
-17.2381
-35.3911
-59.2978
-89.4116
-124.432
-159.581
-185.832
-192.452
-175.143
-142.366
-107.96
-79.9141
-58.9638
-43.2851
-31.4099
-22.4982
-15.8945
-11.0534
-7.53499
-4.98602
-3.12522
-1.7495
-0.725275
0.0384899
0.608533
1.03352
1.34638
1.56565
1.69921
1.74523
1.68973
1.50199
1.14052
0.565256
59.015
60.0336
62.5803
66.7212
72.5099
80.0905
89.6017
101.002
113.882
127.184
138.891
145.833
144.822
134.692
117.674
98.2579
79.7734
63.6157
50.1694
39.3697
30.8947
24.2855
19.149
15.2217
12.2488
9.96746
8.19254
6.81575
5.75702
4.94347
4.31144
3.81386
3.41617
3.08892
2.8025
2.52557
2.22235
1.84736
1.34174
0.632938
57.9245
58.9106
61.3962
65.4718
71.2388
78.9261
88.8142
101.08
115.594
131.559
146.956
157.123
156.332
142.989
121.623
99.1184
78.8661
61.7804
48.0125
37.2906
29.0927
22.6316
17.6056
13.9311
11.2498
9.1869
7.56046
6.28878
5.30065
4.52917
3.92141
3.43774
3.04884
2.7287
2.4526
2.1941
1.92088
1.58871
1.13866
0.507553
55.7708
56.6876
59.029
62.9266
68.5668
76.3334
86.7832
100.565
118.241
139.772
162.591
180.163
180.171
159.299
129.601
101.752
78.0212
58.985
44.5187
33.9053
26.403
20.2073
15.1926
11.7803
9.38487
7.53801
6.11396
5.04342
4.23344
3.60702
3.11888
2.74042
2.44743
2.21795
2.03513
1.88
1.72698
1.53108
1.20978
0.605404
52.6296
53.4216
55.4945
59.016
64.2636
71.8014
82.554
97.927
119.968
151.573
184.987
221.925
226.929
191.214
147.201
112.468
82.6153
59.851
43.5687
32.1244
19.9944
14.4814
11.2012
9.27816
7.419
5.68961
4.33037
3.31099
2.52213
1.89702
1.40417
1.02514
0.738041
0.523844
0.377036
0.29074
0.255275
0.238913
0.157126
-0.208611
48.6316
49.2313
50.8684
53.7194
58.1092
64.7048
74.6923
90.1156
114.508
155.522
222.989
300.75
322.325
223.159
153.414
111.292
73.3694
48.1634
32.2983
22.4019
15.3995
-0.769376
0.496785
2.52382
2.46987
1.78665
1.17942
0.666247
0.200975
-0.206998
-0.546012
-0.806276
-0.997444
-1.12348
-1.17433
-1.13662
-0.98928
-0.722126
-0.395183
-0.375084
43.9316
44.3155
45.3381
47.1757
50.1155
54.7469
62.1819
74.5478
96.187
146.516
234.195
419.497
574.428
207.891
164.551
110.41
60.5029
33.4707
18.6782
9.96691
-0.281773
-5.40837
-2.02271
-2.03564
-3.00142
-3.55727
-3.82983
-4.06085
-4.28381
-4.47055
-4.60918
-4.71535
-4.76745
-4.76765
-4.69373
-4.50818
-4.14661
-3.49174
-2.33248
-0.315502
38.9296
38.9921
39.2458
39.7779
40.7276
42.3727
45.229
50.2593
59.2831
96.1934
170.068
402.821
1898.01
235.227
81.948
26.2821
9.00524
0.910539
-7.88433
-14.2923
11.3454
9.32471
2.99541
-0.625726
-2.22732
-3.09603
-3.71517
-4.17239
-4.49243
-4.70868
-4.8441
-4.91475
-4.92921
-4.85747
-4.66651
-4.2929
-3.62777
-2.49042
-0.641825
33.9145
33.652
33.0745
32.1732
30.894
29.1027
26.5163
22.4767
15.2483
18.4286
6.6466
-132.987
-910.792
-971.789
-278.858
-86.7584
-42.187
-26.5883
-19.4301
-13.8793
-4.97686
-8.42931
-7.75804
-7.11461
-6.36123
-5.4239
-4.53563
-3.82196
-3.27102
-2.83954
-2.49503
-2.20437
-1.96986
-1.76368
-1.54725
-1.28893
-0.949345
-0.489722
0.0862687
0.555547
29.3033
28.7326
27.3741
25.1306
21.7922
16.9188
9.71112
-1.31526
-19.0423
-39.3684
-101.751
-227.995
-417.089
-443.745
-279.437
-152.413
-88.7449
-55.7117
-37.3071
-25.5425
-16.8854
-11.9989
-7.59142
-4.36545
-2.61094
-1.657
-1.02586
-0.589764
-0.307847
-0.132644
-0.0209218
0.0550998
0.108797
0.156252
0.215013
0.297309
0.409565
0.542389
0.632981
0.500676
25.4662
24.6448
22.6504
19.3289
14.3882
7.25761
-3.02043
-18.0153
-40.3618
-74.6283
-122.677
-184.134
-240.994
-249.682
-202.404
-141.667
-95.8101
-66.324
-47.1014
-33.7726
-24.4087
-18.3454
-13.0936
-9.24013
-6.78727
-5.15479
-3.91768
-2.93485
-2.16313
-1.55971
-1.08007
-0.691048
-0.372329
-0.109404
0.112557
0.298009
0.442499
0.525054
0.496044
0.282997
22.7171
21.7271
19.292
15.2395
9.26261
0.783331
-11.0665
-27.466
-49.8988
-79.9093
-117.641
-159.149
-192.597
-200.154
-175.882
-135.793
-99.0395
-72.0157
-52.8691
-38.8483
-28.4086
-20.6885
-14.6537
-10.1042
-6.83584
-4.50063
-2.79133
-1.52438
-0.592632
0.0844045
0.573518
0.925276
1.1745
1.3438
1.44885
1.49318
1.46781
1.34746
1.08316
0.597466
21.2828
20.2082
17.5505
13.1347
6.66157
-2.42404
-14.8945
-31.6572
-53.592
-81.0881
-112.986
-145.046
-169.18
-175.645
-160.42
-131.086
-100.061
-74.6175
-55.5091
-41.155
-30.2569
-22.0413
-15.8619
-11.2291
-7.8275
-5.37411
-3.59622
-2.28636
-1.31188
-0.58517
-0.0419656
0.365309
0.669098
0.889455
1.03694
1.11183
1.1035
0.989762
0.740755
0.345004
57.3141
58.191
60.4029
63.9979
69.0003
75.5081
83.6097
93.2333
103.993
114.968
124.465
129.851
128.573
119.592
104.756
87.7942
71.5011
57.1293
45.1007
35.4124
27.8021
21.8683
17.228
13.6174
10.8435
8.70856
7.05192
5.76952
4.78594
4.03737
3.45861
3.00653
2.65082
2.36719
2.12854
1.90879
1.67887
1.40137
1.02733
0.486719
56.2613
57.1042
59.2537
62.7782
67.7414
74.312
82.6948
92.9968
105.059
118.172
130.689
138.539
137.513
125.95
107.593
88.13
70.3724
55.2341
42.9854
33.4455
26.1817
20.479
15.9759
12.5389
9.95561
7.95835
6.38745
5.16333
4.21986
3.50535
2.95039
2.51489
2.17517
1.90548
1.68656
1.49673
1.31091
1.09563
0.803696
0.368886
54.1842
54.958
56.9658
60.3102
65.126
71.7104
80.4964
91.9774
106.555
124.121
142.522
156.631
156.09
138.375
113.364
89.5679
68.8799
52.1045
39.3462
30.09
23.876
18.6099
13.8179
10.3616
8.01017
6.26795
4.93197
3.92753
3.17403
2.59298
2.15311
1.82278
1.578
1.39711
1.26988
1.18498
1.13002
1.07687
0.959673
0.595884
51.1583
51.8174
53.5707
56.5544
60.9805
67.2957
76.2366
88.9175
106.947
132.604
162.631
193.594
197.352
166.44
129.251
99.2814
72.7873
52.595
38.2379
28.4052
19.1232
16.0732
10.8967
7.15893
4.66378
2.85183
1.54969
0.648756
0.0226719
-0.431414
-0.763012
-0.998452
-1.15655
-1.25653
-1.29291
-1.25436
-1.1268
-0.902232
-0.607647
-0.423708
47.3226
47.8063
49.1569
51.5202
55.1499
60.5788
68.7578
81.3305
101.152
137.262
194.073
261.011
279.259
191.616
135.152
97.6499
62.9885
40.448
26.5892
18.4855
15.3958
6.08434
3.96755
2.7047
1.2222
-0.0967
-1.0784
-1.80136
-2.34701
-2.76285
-3.07916
-3.2976
-3.43381
-3.50371
-3.48812
-3.3466
-3.02815
-2.44909
-1.5464
-0.613214
42.8399
43.1193
43.9121
45.3594
47.6855
51.359
57.2692
67.1383
84.5291
128.66
206.723
375.367
518.155
172.48
158.029
98.5165
50.0008
25.0091
11.9371
4.47216
-4.69429
-32.2858
-29.0902
-26.9442
-25.7495
-24.4385
-23.1601
-22.1012
-21.2409
-20.5082
-19.8592
-19.2906
-18.7591
-18.2212
-17.6376
-16.9415
-16.0047
-14.5647
-12.0327
-6.91033
38.062
38.0613
38.1643
38.445
39.0085
40.0648
42.0208
45.655
52.4879
84.9315
152.18
373.879
1830.92
273.848
71.8102
14.4809
-2.91688
-9.9591
-15.494
-20.1242
-2.48846
-4.69957
-9.47412
-11.9025
-12.7974
-13.1871
-13.4259
-13.5613
-13.595
-13.5465
-13.4534
-13.2837
-13.0454
-12.7156
-12.2299
-11.47
-10.1928
-7.93103
-3.91535
33.29
32.9975
32.3597
31.3681
29.9672
28.0303
25.3086
21.2506
14.4426
17.231
7.6739
-116.06
-824.361
-864.061
-242.42
-79.8264
-44.1719
-31.2476
-24.7229
-19.3216
-13.4463
-21.4399
-17.2338
-13.4607
-11.2954
-9.75475
-8.56299
-7.69077
-7.06736
-6.61256
-6.26997
-5.99344
-5.76631
-5.55269
-5.30814
-4.97689
-4.48142
-3.69874
-2.47941
-0.808296
28.9051
28.3374
27.0041
24.8198
21.6032
16.9776
10.2673
0.23997
-15.4771
-33.4153
-87.3185
-196.807
-362.476
-384.693
-242.529
-134.952
-81.1252
-52.6985
-36.6012
-26.4991
-20.5001
-18.8151
-12.4764
-7.45563
-4.93
-3.62109
-2.76798
-2.18299
-1.80218
-1.559
-1.39716
-1.28278
-1.19511
-1.10588
-0.993449
-0.832979
-0.594768
-0.250167
0.186008
0.507356
25.2546
24.4663
22.5651
19.4207
14.789
8.18531
-1.19402
-14.6539
-34.3657
-64.0511
-105.186
-157.633
-206.233
-214.523
-175.681
-125.034
-86.2776
-60.8859
-44.0765
-32.4266
-24.5022
-19.8261
-14.6147
-10.4349
-7.73412
-5.92722
-4.55927
-3.4839
-2.65251
-2.01429
-1.51824
-1.12453
-0.809889
-0.547882
-0.320409
-0.11316
0.0823566
0.262187
0.388501
0.347399
22.6369
21.7013
19.4063
15.6093
10.057
2.26205
-8.50181
-23.2081
-43.0622
-69.295
-101.964
-137.725
-166.741
-173.82
-153.894
-120.25
-88.9783
-65.5803
-48.7522
-36.3509
-27.1515
-20.4181
-15.0092
-10.6994
-7.48494
-5.14583
-3.41502
-2.11946
-1.15619
-0.447352
0.0725565
0.453774
0.731661
0.932409
1.07361
1.16391
1.20168
1.16955
1.02251
0.654113
21.2696
20.2598
17.7651
13.6421
7.64578
-0.690051
-12.0102
-27.0602
-46.5401
-70.7192
-98.5658
-126.472
-147.603
-153.661
-141.129
-116.514
-90.0054
-67.9011
-51.0654
-38.3103
-28.5955
-21.2671
-15.7061
-11.4108
-8.15651
-5.75481
-3.98296
-2.65619
-1.65377
-0.895542
-0.321678
0.113515
0.442716
0.688138
0.862748
0.971212
1.00774
0.954802
0.782152
0.445848
55.3912
56.116
57.9612
60.9551
65.0915
70.4167
76.9605
84.6108
92.9955
101.328
108.255
111.83
110.114
102.361
90.0289
75.9359
62.2489
50.0086
39.6298
31.1606
24.4107
19.1
14.9726
11.794
9.34877
7.44932
5.96217
4.80251
3.90623
3.23004
2.70161
2.28513
1.94934
1.6851
1.46517
1.26629
1.0685
0.843704
0.563318
0.2016
54.386
55.0719
56.8534
59.7704
63.8468
69.1818
75.891
83.9898
93.2582
103.028
111.871
117.186
115.617
106.031
91.2569
75.4754
60.8039
48.0498
37.5469
29.1912
22.6174
17.5105
13.5679
10.5805
8.30562
6.52312
5.10603
3.98295
3.08297
2.45634
1.95564
1.54776
1.23176
0.973984
0.77129
0.608273
0.460392
0.309723
0.136905
-0.0469685
52.3936
53.0159
54.6584
57.3915
61.2941
66.5614
73.4755
82.3269
93.2795
106.06
119.023
128.172
126.696
112.665
93.2983
74.6939
58.1615
44.3404
33.5607
25.3862
19.0141
14.4744
10.8098
8.044
6.01166
4.44737
3.24011
2.33896
1.67012
1.09705
0.677974
0.376936
0.16135
0.015453
-0.0786353
-0.120808
-0.116673
-0.070882
-0.00652028
0.0192099
49.4904
50.0198
51.4234
53.8112
57.322
62.2621
69.1309
78.65
91.7743
109.636
134.12
155.887
157.434
133.522
104.978
81.3784
60.0305
43.4529
31.4514
22.9511
11.7761
8.93415
6.03689
3.46251
1.46582
-0.131772
-1.38897
-2.30148
-2.93282
-3.39559
-3.72087
-3.93333
-4.05664
-4.11152
-4.09197
-3.97634
-3.74382
-3.34656
-2.71103
-1.68052
45.8428
46.2102
47.2489
49.0716
51.8482
55.9493
62.0187
71.1419
85.1268
113.657
153.494
200.214
210.191
142.709
103.019
74.3084
46.9433
29.0026
17.883
11.4362
9.61492
-2.76696
-4.00082
-4.77336
-6.07343
-7.20027
-8.08657
-8.70339
-9.07735
-9.29349
-9.41121
-9.45751
-9.41266
-9.28375
-9.09489
-8.77262
-8.24641
-7.37458
-5.92597
-3.57912
41.6182
41.7832
42.3254
43.3387
44.9709
47.536
51.6255
58.3545
69.9623
103.638
162.562
289.943
397.253
105.525
117.658
59.5807
20.72
1.56928
-7.971
-12.4697
-9.71527
-23.2491
-25.8509
-30.4498
-31.9528
-31.8558
-31.1955
-30.4416
-29.689
-28.9325
-28.1648
-27.3734
-26.5997
-25.8261
-24.9707
-23.9691
-22.6746
-20.7402
-17.3547
-10.5061
37.1004
37.0232
36.9627
36.9643
37.0847
37.4458
38.2864
40.0545
43.6016
67.7767
118.691
300.861
1653.68
257.431
-18.6692
-61.8178
-70.0281
-70.8341
-69.2162
-64.5988
-37.0931
-35.9335
-37.9234
-37.9329
-36.7792
-35.4405
-34.2009
-33.0589
-31.9805
-30.9485
-29.9786
-29.0343
-28.0671
-27.0792
-25.9688
-24.573
-22.5131
-18.9147
-11.5138
32.5988
32.275
31.5708
30.4751
28.9272
26.8
23.8565
19.6167
12.9654
14.1701
5.59416
-91.2394
-657.253
-652.911
-195.295
-83.8501
-56.6526
-44.6593
-37.7685
-32.0037
-28.8484
-31.2512
-26.9105
-22.889
-20.4476
-18.6148
-17.1642
-16.0489
-15.1816
-14.4865
-13.91
-13.4175
-12.9926
-12.5542
-12.0845
-11.5237
-10.7642
-9.61142
-7.7009
-4.28314
28.4729
27.9151
26.6062
24.4825
21.3932
17.0255
10.8352
1.88077
-11.4909
-26.708
-69.5806
-153.029
-277.684
-295.544
-192.567
-113.575
-72.072
-48.8402
-35.0752
-26.4319
-23.6308
-18.4906
-14.8225
-11.8145
-9.94489
-8.67258
-7.68575
-6.90405
-6.28671
-5.79393
-5.39096
-5.05113
-4.76033
-4.48548
-4.20202
-3.87921
-3.47013
-2.90763
-2.09975
-0.930854
25.0382
24.2888
22.4892
19.537
15.2415
9.21286
0.819876
-10.9299
-27.6313
-51.9633
-84.7216
-125.261
-162.072
-169.773
-142.15
-104.444
-74.2417
-53.4707
-39.1433
-28.9609
-21.8648
-17.923
-14.3902
-11.4017
-9.14827
-7.45455
-6.12598
-5.06757
-4.22797
-3.56115
-3.026
-2.58862
-2.22741
-1.91532
-1.63301
-1.36317
-1.09172
-0.806506
-0.503896
-0.1804
22.5743
21.6998
19.5585
16.0422
10.9564
3.91487
-5.65033
-18.4756
-35.4252
-57.3107
-83.9891
-112.684
-135.952
-142.065
-127.448
-101.865
-77.0946
-57.8297
-43.5221
-32.7605
-24.6622
-18.7619
-14.2398
-10.6825
-7.96884
-5.93723
-4.40456
-3.23646
-2.34353
-1.66043
-1.13524
-0.728742
-0.412246
-0.163766
0.0319194
0.18327
0.290438
0.344136
0.324387
0.212381
21.2855
20.3464
18.0328
14.2318
8.75959
1.24992
-8.79918
-21.948
-38.6812
-59.1007
-82.2657
-105.236
-122.624
-127.981
-118.68
-99.3956
-78.1596
-59.8791
-45.5522
-34.484
-25.9462
-19.4712
-14.607
-10.9077
-8.0986
-5.98322
-4.38839
-3.17545
-2.24659
-1.53299
-0.983313
-0.557798
-0.227594
0.0268648
0.217756
0.350434
0.420216
0.413882
0.317185
0.14644
53.3763
53.9515
55.4299
57.8189
61.0852
65.2266
70.2178
75.9118
81.956
87.6989
92.1186
93.8702
91.6721
85.1088
75.2481
64.0355
53.0216
43.0054
34.3505
27.1562
21.3278
16.694
13.0923
10.3647
8.28032
6.64374
5.34848
4.33536
3.55408
2.95847
2.49756
2.13802
1.85603
1.63198
1.4452
1.27548
1.09999
0.891645
0.617554
0.240831
52.4126
52.9538
54.3689
56.6751
59.861
63.9599
69.0012
74.9157
81.4335
87.95
93.3531
95.8685
93.5296
85.7872
74.593
62.6016
51.2204
41.0467
32.4264
25.3893
19.7275
15.2258
11.7738
9.26676
7.38941
5.91342
4.74191
3.82045
3.09907
2.5465
2.11045
1.76313
1.48906
1.26935
1.09091
0.940113
0.79794
0.641475
0.439671
0.155747
50.5179
50.995
52.2756
54.3949
57.3817
61.3322
66.3798
72.6182
79.9833
88.0579
95.66
100.059
97.0758
86.053
72.0538
58.8036
46.7513
36.1932
27.5412
20.6704
15.162
10.9012
8.26983
6.42306
4.86822
3.5978
2.64273
1.95452
1.45891
1.09065
0.828132
0.645719
0.523393
0.446025
0.404137
0.39503
0.41312
0.443222
0.444562
0.298275
47.7733
48.153
49.2099
51.003
53.5971
57.1623
61.9617
68.3273
76.5926
86.9381
97.8943
106.393
101.724
83.7084
66.4
52.5528
39.9833
29.5436
21.5005
15.0599
8.64144
2.37804
2.43758
2.79
2.12945
1.18229
0.366153
-0.263135
-0.743457
-1.11463
-1.39127
-1.58571
-1.7086
-1.7704
-1.76837
-1.68863
-1.51648
-1.2307
-0.828598
-0.3863
44.3197
44.5597
45.2875
46.5756
48.4959
51.2671
55.2217
60.8627
68.8489
88.195
108.182
128.779
124.746
85.2563
62.6335
48.1959
31.461
19.2704
11.3915
6.07538
0.780117
-13.2361
-10.8889
-8.04031
-6.80824
-6.22396
-5.83682
-5.54916
-5.33371
-5.17375
-5.05091
-4.9439
-4.83596
-4.71524
-4.54881
-4.29195
-3.88608
-3.2386
-2.26518
-1.07154
40.3446
40.4077
40.7006
41.2815
42.2186
43.6728
45.9302
49.4661
55.06
75.7596
101.707
146.453
168.167
28.6035
24.5137
6.3515
-4.24049
-8.87785
-11.9107
-14.0538
-19.9228
-12.0514
-14.1736
-16.5607
-17.3425
-17.4157
-17.2581
-17.0109
-16.7059
-16.3516
-15.9534
-15.5037
-15.0355
-14.5508
-13.9943
-13.3112
-12.3978
-11.0313
-8.79408
-5.01329
36.1044
35.9614
35.7388
35.4612
35.1373
34.7985
34.5014
34.3203
34.3031
47.7419
58.9574
128.79
167.78
-718.128
-138.831
-95.0147
-67.3848
-59.8733
-54.6472
-51.5458
-68.9078
-40.0373
-37.8923
-35.8756
-33.9304
-32.0002
-30.2869
-28.8241
-27.5519
-26.4167
-25.3845
-24.4368
-23.5535
-22.6778
-21.7753
-20.7794
-19.5719
-17.8702
-15.0558
-9.5462
31.8982
31.542
30.7741
29.5754
27.8814
25.5589
22.3659
17.8468
11.0789
9.76532
-11.2136
-79.1384
-303.269
-258.43
-112.019
-63.3379
-40.3778
-29.1036
-22.8055
-18.0186
-9.90352
5.24234
2.21369
-1.55208
-3.21228
-4.0024
-4.52177
-4.89338
-5.14439
-5.3022
-5.39158
-5.43544
-5.42927
-5.34985
-5.18216
-4.90291
-4.44524
-3.68398
-2.45668
-0.800241
28.0433
27.4952
26.2152
24.1548
21.1955
17.0836
11.3866
3.35872
-8.38751
-26.6411
-49.7239
-103.296
-174.565
-189.064
-133.559
-86.1345
-57.6833
-39.8358
-28.5056
-20.4852
-10.2415
-1.20684
-2.32315
-3.89062
-3.99032
-3.5797
-3.16186
-2.80159
-2.48688
-2.21591
-1.9862
-1.78847
-1.61619
-1.4573
-1.282
-1.06942
-0.794578
-0.423228
0.0390912
0.419786
24.8383
24.1314
22.4347
19.6796
15.7255
10.2771
2.8728
-7.17853
-20.8727
-39.4836
-63.7513
-91.8898
-116.543
-123.005
-106.955
-82.2886
-60.6842
-44.6734
-32.9757
-24.0015
-16.5046
-11.5004
-8.76575
-6.79544
-5.01795
-3.5531
-2.45419
-1.64438
-1.04028
-0.586792
-0.245052
0.0158164
0.216261
0.376968
0.519181
0.653301
0.783043
0.898844
0.949192
0.768131
22.5396
21.7305
19.744
16.5146
11.9036
5.6242
-2.73383
-13.671
-27.7034
-45.1564
-65.621
-87.0595
-104.045
-109.273
-100.155
-82.5929
-64.454
-49.4252
-37.7058
-28.5136
-21.2074
-15.5848
-11.3123
-8.18121
-5.83997
-4.06139
-2.7146
-1.69425
-0.916305
-0.320164
0.137108
0.487662
0.755191
0.957693
1.1076
1.2105
1.26125
1.23862
1.09229
0.714155
21.3349
20.4654
18.341
14.8706
9.93291
3.25992
-5.50891
-16.7466
-30.7193
-47.3424
-65.7375
-83.6464
-97.1055
-101.66
-95.5127
-81.6831
-65.677
-51.2441
-39.4756
-30.0954
-22.6446
-16.8194
-12.3754
-9.04789
-6.52715
-4.58149
-3.07646
-1.9186
-1.03049
-0.349766
0.170927
0.567231
0.865985
1.08582
1.23786
1.3262
1.34294
1.26664
1.05548
0.637772
51.4121
51.8494
52.9872
54.8179
57.284
60.3467
63.9399
67.9002
71.9121
75.4634
77.8296
78.1445
75.6604
70.2188
62.5449
53.8793
45.2508
37.2539
30.205
24.2433
19.3588
15.4599
12.4281
10.1098
8.30517
6.86133
5.70149
4.78052
4.05672
3.48925
3.04113
2.68282
2.39128
2.14636
1.92903
1.71942
1.49275
1.21871
0.859142
0.366244
50.4942
50.8998
51.9746
53.7207
56.0912
59.0704
62.6229
66.6268
70.8045
74.653
77.3798
77.9116
75.221
69.1631
60.9148
52.0155
43.3697
35.4259
28.5059
22.7437
18.0805
14.4047
11.6212
9.53284
7.89655
6.5726
5.5033
4.6462
3.95837
3.40453
2.95605
2.58897
2.2851
2.02798
1.80199
1.5918
1.37568
1.12375
0.794126
0.333339
48.696
49.0398
49.9835
51.545
53.7
56.47
59.8767
63.8798
68.2891
72.6464
76.0476
76.9543
73.5301
65.8172
56.4528
47.4355
38.9964
31.2327
24.5624
19.1319
14.8233
11.5932
9.46437
7.81889
6.34938
5.10413
4.13287
3.39918
2.84273
2.41526
2.08601
1.8336
1.64075
1.49275
1.37731
1.28403
1.19693
1.0865
0.893494
0.491479
46.1011
46.3536
47.091
48.3414
50.1139
52.4635
55.4791
59.2276
63.6704
68.4917
72.7672
74.2429