/*--------------------------------*- C++ -*----------------------------------*\
| =========                 |                                                 |
| \\      /  F ield         | OpenFOAM: The Open Source CFD Toolbox           |
|  \\    /   O peration     | Version:  2306                                  |
|   \\  /    A nd           | Website:  www.openfoam.com                      |
|    \\/     M anipulation  |                                                 |
\*---------------------------------------------------------------------------*/
FoamFile
{
    version     2.0;
    format      ascii;
    arch        "LSB;label=32;scalar=64";
    class       surfaceScalarField;
    location    "0.55";
    object      phi;
}
// * * * * * * * * * * * * * * * * * * * * * * * * * * * * * * * * * * * * * //

dimensions      [0 3 -1 0 0 0 0];

oriented        oriented;

internalField   nonuniform List<scalar> 
338621
(
24.9951
0.00240909
0.00116601
24.9874
0.00512896
0.00246896
24.9752
0.00814862
0.00398716
24.9579
0.0113262
0.00585918
24.9345
0.0147725
0.00839405
24.9016
0.0209019
0.0117559
24.8548
0.0305006
0.0160633
24.7917
0.0411907
0.0216275
24.7296
0.0330654
0.0286811
24.6863
0.00590665
0.0371195
24.6578
-0.0185013
0.046772
24.5837
0.0168282
0.057064
24.6123
-0.0963263
0.0675773
24.7431
-0.20829
0.0773421
24.7855
-0.128465
0.0858131
24.8186
-0.126062
0.0927586
24.848
-0.12795
0.0983006
24.8717
-0.12678
0.102882
24.8914
-0.126432
0.106496
24.9182
-0.136208
0.10935
24.948
-0.14124
0.111342
24.9707
-0.135538
0.112852
24.988
-0.131334
0.114006
25.0021
-0.128897
0.114721
25.0141
-0.127196
0.11519
25.0242
-0.125598
0.11548
25.0331
-0.124438
0.115578
25.0407
-0.123176
0.11553
25.0472
-0.121991
0.115474
25.053
-0.121164
0.115419
25.0581
-0.120465
0.115371
25.0627
-0.119928
0.115315
25.0668
-0.119496
0.115366
25.0705
-0.119179
0.115497
25.0738
-0.119
0.115651
25.0772
-0.119263
0.115839
25.0807
-0.119461
0.115992
25.0843
-0.119773
0.116163
25.0883
-0.120231
0.116282
-0.121092
0.116088
24.995
0.0048059
0.00114266
24.9873
0.0103909
0.00239253
24.9746
0.0168082
0.00389878
24.9572
0.0228791
0.00575786
24.9338
0.0297302
0.00827349
24.9041
0.03884
0.0115322
24.8683
0.0502133
0.0158923
24.8224
0.0653068
0.0215513
24.7576
0.0688042
0.0288
24.6825
0.0429944
0.0376965
24.6393
-0.0236719
0.0481923
24.6258
-0.0291294
0.0593704
24.6645
-0.206371
0.0713612
24.7491
-0.375145
0.0821964
24.8303
-0.300983
0.0911537
24.8995
-0.29374
0.0982499
24.9524
-0.284899
0.103843
24.995
-0.277862
0.108359
25.0402
-0.283673
0.111916
25.0743
-0.284888
0.114536
25.0945
-0.27792
0.11643
25.1087
-0.267587
0.117798
25.1183
-0.259856
0.118924
25.1258
-0.256058
0.119671
25.1314
-0.252969
0.120152
25.1358
-0.250441
0.12041
25.1388
-0.24795
0.120563
25.1413
-0.246287
0.120611
25.1435
-0.244883
0.120632
25.1452
-0.243437
0.120653
25.1465
-0.24245
0.120689
25.1472
-0.241439
0.120753
25.148
-0.241168
0.120875
25.1487
-0.240874
0.121038
25.1493
-0.240838
0.121223
25.1499
-0.241336
0.121453
25.1507
-0.241873
0.121616
25.1518
-0.242684
0.121793
25.1537
-0.243968
0.121865
-0.244825
0.121662
24.9953
0.00686429
0.00109028
24.9877
0.015719
0.0022886
24.9757
0.0250107
0.00370187
24.9576
0.0352615
0.00555867
24.9332
0.0460549
0.00799646
24.9018
0.0587936
0.0112176
24.8617
0.0745098
0.0156249
24.8123
0.0931269
0.0214174
24.7429
0.108882
0.0290893
24.6442
0.102523
0.0389599
24.5668
0.00629685
0.0510831
-0.00505618
0.00591137
-0.00463558
24.663
-0.0378848
0.065133
-0.0576403
-0.0375473
-0.0573824
24.5556
-0.0104808
0.078222
-0.0948185
0.0217647
-0.0934874
24.7292
-0.181768
0.0903001
-0.12356
-0.211856
-0.121852
24.824
-0.128598
0.0991256
-0.121165
-0.126486
-0.118696
24.8859
-0.1176
0.10572
-0.115597
-0.114998
-0.113355
24.9406
-0.113644
0.110889
-0.113874
-0.111675
-0.111396
25.0068
-0.116223
0.115089
-0.115243
-0.114286
-0.113482
25.05
-0.112799
0.118356
-0.111465
-0.11109
-0.109965
25.076
-0.109134
0.12056
-0.108119
-0.107557
-0.106613
25.0941
-0.41785
0.121883
25.1078
-0.404232
0.122901
25.1163
-0.392255
0.123935
25.1227
-0.387177
0.124747
25.1277
-0.383304
0.125285
25.1314
-0.379642
0.125557
25.1337
-0.375975
0.125641
25.1357
-0.373816
0.125612
25.1365
-0.371276
0.125527
25.1375
-0.369811
0.125438
25.1378
-0.368148
0.125374
25.138
-0.367048
0.125356
25.1378
-0.366292
0.125347
25.1376
-0.36612
0.125486
25.1369
-0.365817
0.125596
25.1363
-0.366416
0.125775
25.1359
-0.367439
0.125894
25.1359
-0.368665
0.126016
25.136
-0.37016
0.126035
-0.371713
0.125834
24.9956
0.00918815
0.00101124
24.9889
0.0202794
0.00212951
24.9771
0.0332908
0.00342723
24.9602
0.0468575
0.00520096
24.9356
0.0630708
0.00748918
24.9011
0.0825647
0.0105983
24.8554
0.105167
0.0148897
24.797
0.130722
0.0206996
24.7297
0.147352
0.0286766
6.14105
0.0381001
0.0395271
0.0553575
0.0388247
0.0548675
6.16304
6.14029
6.16097
6.12331
0.0182392
0.0057985
-6.11004
6.09771
-0.0332212
0.00767324
-6.10152
6.1229
-0.0413913
0.00955488
-6.11522
6.14226
-0.220142
0.0113558
-6.16128
6.17588
-0.155723
0.0125319
-6.18954
6.20057
-0.141857
0.013219
-6.21217
6.22669
-0.141976
0.0138054
-6.2388
6.24611
-0.137861
0.0143242
-6.25198
6.25724
-0.132769
0.0147194
-6.26168
6.26571
-0.128162
0.0149992
25.1056
-0.139326
0.124809
-0.140074
-0.139677
-0.141673
-6.26933
-6.27408
-6.26973
-6.27426
25.1113
-0.535456
0.125551
25.114
-0.521394
0.126452
25.1167
-0.517145
0.127285
25.1174
-0.512069
0.128024
25.1166
-0.507459
0.128587
25.1157
-0.504006
0.128976
25.1137
-0.501061
0.129232
25.111
-0.497968
0.129394
25.1076
-0.495956
0.129497
25.1039
-0.494006
0.129561
25.0996
-0.492332
0.129606
25.0946
-0.490879
0.129604
25.0892
-0.490461
0.129715
25.0835
-0.489869
0.129744
25.0773
-0.489956
0.129805
25.0708
-0.490734
0.129769
25.0642
-0.491748
0.129635
25.0587
-0.493999
0.129371
-0.495343
0.128836
24.9973
0.00981524
0.000904652
24.9914
0.02426
0.00190826
24.9816
0.0399376
0.00306537
24.9661
0.0575857
0.00465626
24.9433
0.0791608
0.00670417
24.9098
0.106403
0.00949702
24.8599
0.141705
0.013351
24.7855
0.18628
0.0187591
6.17112
0.236957
0.0262452
6.16381
6.17083
6.16378
6.15491
0.0503546
0.00395242
6.12902
0.00563033
-6.15721
0.0204349
0.0122183
0.0119823
0.0206491
-0.0427291
-6.07596
6.04139
0.00771462
-0.0018131
0.00447972
0.00406373
-0.00161474
0.0217766
-6.04065
6.05886
0.00989283
0.029336
-0.039936
-0.0401141
-0.018916
0.0415766
-6.11145
6.13717
0.01199
-0.0518286
-0.0665283
-0.104434
-0.0522423
0.237365
-6.17027
6.18293
0.0126049
-0.0501746
-0.0541112
-0.0534582
-0.0505296
0.183023
-6.19521
6.20906
0.0127858
-0.0500328
-0.0493014
-0.0492651
-0.0500109
0.171977
-6.22283
6.23472
0.0130253
-0.0478872
-0.0476617
-0.0477703
-0.0477508
0.166157
-6.24433
6.25154
0.0133019
-0.0450827
-0.0447147
-0.0448761
-0.0449109
0.159084
-6.25788
6.26245
0.0135181
-0.0424982
-0.0424447
-0.0425823
-0.0423809
0.151829
-6.26657
6.26879
0.0136075
-0.0402457
-0.0405088
-0.0405623
-0.0402199
0.145718
-6.27205
6.27385
-0.154689
0.0135667
25.0579
-0.614658
0.110206
-6.27435
-6.26996
-6.27505
-6.26953
25.034
-0.607841
0.110342
25.0083
-0.601147
0.109807
24.9824
-0.595403
0.109147
24.9581
-0.591497
0.108425
24.9348
-0.588323
0.107615
24.9123
-0.585353
0.106738
24.8912
-0.582709
0.105849
24.8705
-0.580203
0.104995
24.8503
-0.578104
0.104222
24.8308
-0.576371
0.103562
24.8118
-0.574885
0.102999
24.7927
-0.573947
0.102653
24.774
-0.573599
0.102376
24.7556
-0.573714
0.102168
24.7375
-0.574605
0.101919
24.7206
-0.576267
0.10151
24.7049
-0.579196
0.10084
-0.584138
0.0996834
24.9999
0.00844092
0.000772
24.9966
0.0259328
0.00162835
24.989
0.0448226
0.00261782
24.9773
0.0653975
0.00389338
24.9597
0.0911132
0.00558972
24.9326
0.125556
0.00783997
24.8896
0.173861
0.0108806
24.8172
0.243465
0.015176
6.17079
0.351033
0.0210331
6.17033
6.1708
6.17017
-0.0664149
6.14506
0.0889569
0.0031875
-0.020013
-1.52755
1.52237
0.0245853
0.000609962
-0.0198011
-1.50399
1.49179
0.031209
0.000794419
-1.46812
0.0519534
1.47803
-0.0630142
0.00116689
-1.52972
0.0842774
1.53854
-0.0942429
0.0011562
-1.53713
0.0604432
-0.063912
0.00133476
1.53927
-1.54893
0.0576739
-0.0616343
0.00132814
1.55156
0.0542264
-1.55735
1.55878
-0.0570101
0.00135263
0.0496023
-1.56161
1.56213
-0.051477
0.0013525
0.0464889
-1.56281
1.56294
-0.0478978
0.0012741
0.0437602
-1.56259
1.56234
-0.0446099
0.00110039
-1.55727
0.16262
6.17661
-0.14546
0.00672964
-1.54315
-1.55753
-1.54255
23.8558
-0.682107
0.0473825
-6.11466
-5.80169
-6.11135
-5.80797
23.8671
-0.668938
0.0497346
23.8781
-0.662339
0.0502145
23.8896
-0.656969
0.0501191
23.9008
-0.65258
0.0498915
23.9115
-0.648633
0.049589
23.9218
-0.64492
0.0492366
23.9316
-0.64139
0.0488505
23.9411
-0.63813
0.0484375
23.9502
-0.635196
0.0479998
23.9589
-0.632628
0.0475354
23.9676
-0.630595
0.047014
23.9762
-0.629017
0.0464826
23.9847
-0.627902
0.0458504
23.9933
-0.627444
0.0450747
24.0021
-0.627428
0.0440713
24.011
-0.627889
0.0427149
24.0197
-0.628784
0.0408444
-0.629711
0.0383141
25.003
0.00455183
0.000624555
25.0036
0.024038
0.00130222
25.0008
0.0455591
0.00208595
24.9951
0.0680217
0.00300696
24.9864
0.0956359
0.0041878
24.9729
0.1333
0.00572161
24.9533
0.185825
0.00762915
24.9223
0.264414
0.0100841
6.21338
0.391329
0.0130346
6.22142
6.21308
6.22108
-0.107317
6.1979
0.120891
0.0019131
-0.039734
-1.54202
1.53583
0.0455801
0.000347787
-0.0825918
-1.506
1.48718
0.10089
0.000529211
0.00446011
-0.0746719
0.0748711
-0.00469956
4.03579e-05
-0.0214007
0.000449582
0.020913
1.98868e-06
3.60409e-05
-0.196561
0.00831203
-0.019579
-0.00176028
0.209588
-1.17269
0.0571148
-0.0746824
-0.00185521
1.19211
0.0512593
-1.23327
1.24228
-0.058218
-0.00205007
0.0488566
-1.27019
1.27939
-0.0566001
-0.00145052
0.0449183
-1.30284
1.31
-0.0512368
-0.000847344
0.0419182
-1.32824
1.33497
-0.0482918
-0.000355842
-1.37655
0.171763
5.76861
-0.20092
-0.00299916
-1.48837
-1.38118
-1.49035
24.0441
-0.649381
-0.0752548
-5.82856
-6.166
-5.84136
-6.16562
24.0761
-0.624051
-0.076896
24.1041
-0.612309
-0.0780177
24.1298
-0.603788
-0.0788923
24.153
-0.596386
-0.0793853
24.1742
-0.59034
-0.0794817
24.1941
-0.585549
-0.079305
24.2132
-0.581676
-0.0788233
24.2318
-0.57864
-0.0781061
24.2501
-0.576302
-0.077197
24.2682
-0.574563
-0.0761859
24.2862
-0.573438
-0.0750877
24.304
-0.572777
-0.0740788
24.3218
-0.572486
-0.0731566
24.3392
-0.572425
-0.0724782
24.3566
-0.57269
-0.0721441
24.3738
-0.57288
-0.0722359
24.3906
-0.572627
-0.0728667
-0.570938
-0.0739939
25.0048
-0.00042761
0.00047898
25.01
0.0177737
0.000981646
25.015
0.0390823
0.00151224
25.019
0.0619215
0.00209838
25.021
0.0909752
0.00271642
25.0262
0.12476
0.00342409
25.0384
0.16958
0.00406998
25.0645
0.233857
0.00445745
6.27461
0.335271
0.00424779
6.28238
6.27479
6.28453
-0.11289
6.28236
0.104668
0.000471098
-0.0449897
-1.57801
1.5797
0.0432615
4.15888e-05
-0.084902
-1.5981
1.61298
1.53305e-05
0.0700008
-0.0268364
-1.71301
1.75281
-0.000418272
0.0587081
-0.0221395
-0.0269382
-0.0221803
0.100709
-1.71444
1.68419
-0.00101988
-0.0694511
0.101873
-1.60939
-0.0012788
1.59869
-0.0898994
0.0765788
-1.58405
-0.00122557
1.58113
-0.0724418
0.0548404
-1.57654
1.57563
-0.0526801
-0.00124793
0.0552851
-1.57393
1.57214
-0.052216
-0.00127868
0.0495057
-1.57177
1.57112
-0.0475642
-0.00129615
0.0458541
-1.57018
1.56967
-0.044051
-0.00129733
-1.56726
0.170065
6.26329
-0.154606
-0.0109789
-1.56677
-1.56693
-1.56682
25.0636
-0.537092
-0.106176
-6.26694
-6.2666
-6.26908
-6.26713
25.0651
-0.518148
-0.107399
25.0634
-0.502516
-0.108064
25.0612
-0.4929
-0.108733
25.0597
-0.485537
-0.109369
25.0589
-0.479712
-0.109806
25.0585
-0.475033
-0.110098
25.0581
-0.471073
-0.110183
25.058
-0.46845
-0.110125
25.0579
-0.466244
-0.109962
25.0576
-0.464449
-0.1098
25.0573
-0.463621
-0.109547
25.057
-0.46297
-0.109437
25.0562
-0.46232
-0.109397
25.0557
-0.462392
-0.109589
25.0554
-0.462295
-0.110066
25.0554
-0.462005
-0.110876
25.056
-0.461128
-0.112092
-0.459746
-0.113622
25.0057
-0.00545145
0.000294492
25.0141
0.00869757
0.000647901
25.0271
0.0251309
0.00095668
25.0385
0.0493854
0.0012083
25.0539
0.0742667
0.0013507
25.0775
0.0999805
0.00127885
25.1156
0.130798
0.000821043
25.1791
0.170926
-0.000487558
6.3209
0.233228
-0.0031496
6.31904
6.32512
6.31936
-0.0897977
6.33706
0.0743438
-0.000696491
-0.0335562
6.41389
0.088842
-0.00159972
-0.0347429
-0.0336686
-0.0342929
-6.36487
-0.0337829
6.51817
0.0768762
-0.00328829
-0.0265461
-0.0336425
-0.0264666
-6.47133
-0.00772178
-6.5492
6.51587
-0.00497016
-0.00583148
0.0147114
-0.00797064
0.0450703
0.0454739
-6.53749
6.51513
-0.12343
-0.0088999
0.039258
0.0362578
0.0336605
0.0550492
-6.45001
6.41192
-0.177378
-0.0108519
0.0555512
0.0573666
0.0583355
0.0560646
-6.37165
6.33937
-0.174904
-0.0119569
0.0547348
0.0550053
0.0533477
0.0460859
-6.32119
6.30994
-0.156414
-0.0127724
0.0451337
0.0449257
0.0443007
0.0439831
-6.3012
6.29522
-0.155376
-0.0133415
0.0437492
0.0435803
0.0433829
0.0409611
-6.29064
6.28513
-0.142602
-0.0136735
0.0404619
0.040494
0.0398675
0.0380479
-6.28072
6.27512
-0.130619
-0.0138575
0.0375815
0.0375301
0.0369149
0.140466
-6.27336
6.27136
-0.124476
-0.0139993
25.064
-0.40648
-0.120581
-6.26867
-6.26871
-6.26877
-6.26792
25.0563
-0.389615
-0.12079
25.0529
-0.378286
-0.120841
25.0509
-0.370092
-0.120891
25.0502
-0.363951
-0.120864
25.0501
-0.35893
-0.120705
25.0506
-0.355043
-0.120437
25.0516
-0.351929
-0.120095
25.0523
-0.349522
-0.119707
25.0531
-0.347711
-0.119294
25.0537
-0.346185
-0.118914
25.0542
-0.345593
-0.118532
25.0543
-0.344823
-0.118172
25.0548
-0.344879
-0.117942
25.055
-0.344757
-0.11786
25.0551
-0.344485
-0.117949
25.056
-0.344606
-0.118276
25.0582
-0.344365
-0.1189
-0.344142
-0.119837
25.0063
-0.0105238
0.000220282
25.0161
-0.00154529
0.000412908
25.0251
0.0157315
0.000522095
25.0417
0.0323047
0.000521104
25.0685
0.0473625
0.000257458
25.1021
0.0669059
-0.000399617
25.1498
0.0849358
-0.00169027
25.2166
0.108452
-0.00409289
25.3261
0.132201
-0.00829431
25.432
0.145913
-0.0152456
-0.0619903
-0.0576384
-0.0590604
-0.0576039
25.5809
0.133482
-0.0258661
-0.0614331
-0.0648962
-0.0621394
-0.0678372
25.7159
0.0556915
-0.0407184
-0.0426762
-0.0288125
-0.0460795
-0.0324696
25.594
-0.156116
-0.0581105
0.0209367
0.124021
0.0195197
0.171435
25.5006
-0.238518
-0.0762087
0.0836004
0.11735
0.0991034
0.107945
25.4308
-0.249868
-0.0908497
0.0833571
0.148694
0.0317424
0.14675
25.344
-0.354259
-0.101598
0.135507
0.138408
0.133545
0.135376
25.2588
-0.324338
-0.108764
0.129152
0.132805
0.126602
0.129931
25.1914
-0.334627
-0.113595
0.132134
0.129136
0.128863
0.125499
25.1472
-0.313607
-0.116773
0.122036
0.118906
0.118766
0.114894
25.1226
-0.294427
-0.11882
0.111379
0.111168
0.106854
0.108436
25.1027
-0.279536
-0.120078
0.106645
0.105936
0.104135
0.102805
25.0857
-0.268823
-0.120627
25.0756
-0.258712
-0.12087
25.0695
-0.25121
-0.120988
25.0656
-0.245066
-0.12104
25.0628
-0.240326
-0.120893
25.0615
-0.23695
-0.120647
25.0603
-0.233496
-0.12033
25.0597
-0.23136
-0.119981
25.0591
-0.229232
-0.119644
25.0587
-0.228044
-0.119343
25.0587
-0.227004
-0.119119
25.0581
-0.226017
-0.118998
25.058
-0.225775
-0.118918
25.0574
-0.225225
-0.119037
25.0569
-0.225048
-0.119276
25.0572
-0.225124
-0.119681
25.0581
-0.225139
-0.120275
25.059
-0.224235
-0.121081
-0.223566
-0.122084
25.0066
-0.0153781
0.000139817
25.0097
-0.00487853
0.000247491
25.0175
0.00781046
0.000226105
25.0372
0.0126855
6.21378e-05
25.0628
0.0223302
-0.000442035
25.0923
0.0390074
-0.00147754
25.1405
0.0402554
-0.00326705
25.2021
0.0533838
-0.00622062
25.2816
0.0638845
-0.0110024
25.378
0.0679972
-0.0182023
25.4855
0.0544972
-0.0283623
25.5662
0.016873
-0.0417955
25.5439
-0.0764816
-0.0572814
25.529
-0.150801
-0.0728136
25.4053
-0.0399008
-0.086185
25.3217
-0.173792
-0.0967596
25.2706
-0.168819
-0.104206
25.2082
-0.162461
-0.109602
25.1625
-0.154571
-0.113254
25.13
-0.146146
-0.115721
25.1063
-0.138459
-0.117333
25.0882
-0.132493
-0.118193
25.0756
-0.127411
-0.118658
25.0667
-0.123587
-0.118777
25.0608
-0.120442
-0.118687
25.0569
-0.118129
-0.118316
25.0539
-0.116036
-0.117854
25.0523
-0.114556
-0.117339
25.0513
-0.113624
-0.116746
25.0507
-0.112451
-0.116192
25.0503
-0.112013
-0.115688
25.0499
-0.111282
-0.11527
25.05
-0.111206
-0.11492
25.0497
-0.11082
-0.1147
25.0501
-0.110926
-0.114628
25.0503
-0.110635
-0.114681
25.051
-0.110868
-0.114874
25.0519
-0.110849
-0.115231
25.0541
-0.110603
-0.115784
-0.11127
-0.11657
24.9869
0.000119393
24.9818
0.00022064
24.9896
0.000134649
25.0025
-4.6599e-05
25.0257
-0.000676011
25.0667
-0.00181166
25.111
-0.00374794
25.1716
-0.00690315
25.2477
-0.0118446
25.3349
-0.0189494
25.4183
-0.028596
25.4762
-0.0408961
25.4547
-0.0548033
25.3729
-0.0688259
25.4145
-0.0813567
25.3329
-0.0919099
25.2639
-0.0995854
25.2067
-0.105024
25.1611
-0.108829
25.1264
-0.111438
25.1012
-0.113169
25.0829
-0.114167
25.0701
-0.114636
25.0613
-0.114675
25.0553
-0.11452
25.0513
-0.114129
25.0489
-0.113633
25.0475
-0.113143
25.0465
-0.112535
25.046
-0.112008
25.0456
-0.111577
25.0455
-0.1112
25.0452
-0.110918
25.0452
-0.110789
25.0451
-0.110859
25.0455
-0.111046
25.046
-0.111363
25.047
-0.111831
25.0489
-0.112479
-0.113348
24.9957
0.00142727
0.00232168
24.9889
0.00425552
0.00482021
24.9779
0.00688092
0.00778285
24.9618
0.010051
0.0115068
24.9404
0.0129168
0.0163413
24.9111
0.0176728
0.0227328
24.8693
0.0259962
0.0311102
24.8121
0.0360573
0.0419183
24.7566
0.0277886
0.0554921
24.7203
0.00030167
0.0721569
24.6953
-0.0200922
0.0911669
24.6326
0.00721721
0.111874
24.6609
-0.0940062
0.132833
24.7785
-0.193375
0.152652
24.8111
-0.117095
0.169679
24.8352
-0.115448
0.183421
24.8582
-0.119735
0.194289
24.8773
-0.119815
0.202989
24.8941
-0.120643
0.209857
24.9217
-0.133711
0.215174
24.9494
-0.135704
0.219075
24.9712
-0.131072
0.221982
24.9886
-0.127631
0.224124
25.0032
-0.125566
0.225663
25.0153
-0.123699
0.226723
25.0258
-0.122477
0.227399
25.0347
-0.121105
0.227779
25.0421
-0.119859
0.227937
25.0486
-0.118975
0.227982
25.0542
-0.1182
0.227991
25.0589
-0.11728
0.227995
25.0626
-0.116474
0.228041
25.0662
-0.116299
0.228129
25.0696
-0.11624
0.228347
25.0724
-0.115807
0.22859
25.0754
-0.11606
0.228932
25.0784
-0.116178
0.229169
25.0816
-0.116489
0.229424
25.0856
-0.117156
0.22945
-0.117757
0.228683
24.9957
0.00293462
0.00226505
24.9889
0.00855871
0.00471401
24.9774
0.0143892
0.0076306
24.9613
0.0202191
0.011317
24.9394
0.0264616
0.0161226
24.9118
0.0336748
0.0225177
24.8788
0.0432456
0.0309665
24.8363
0.0573237
0.0420296
24.7736
0.0623131
0.0562365
24.6978
0.0390392
0.0739998
24.6546
-0.0242416
0.0949818
24.5927
0.00999401
0.11822
24.628
-0.199885
0.14177
24.7607
-0.407645
0.163669
24.842
-0.289327
0.181704
24.9101
-0.281752
0.195864
24.9603
-0.273723
0.207007
25.0006
-0.26799
0.215758
25.0461
-0.277119
0.222601
25.0788
-0.279722
0.2277
25.0982
-0.270204
0.231388
25.1121
-0.261398
0.23412
25.1216
-0.254435
0.236212
25.1287
-0.250863
0.237747
25.1346
-0.24825
0.238828
25.1386
-0.245705
0.239556
25.1415
-0.243436
0.240052
25.144
-0.242223
0.240395
25.1458
-0.240751
0.240659
25.1468
-0.239464
0.240886
25.1477
-0.238608
0.241109
25.1486
-0.237937
0.241351
25.1487
-0.23722
0.24167
25.1487
-0.237205
0.242013
25.1491
-0.237427
0.24239
25.1492
-0.237402
0.242767
25.1497
-0.238152
0.243088
25.1508
-0.239171
0.243301
25.1521
-0.239905
0.243326
-0.241221
0.242513
24.9957
0.00450866
0.0021594
24.9891
0.0128223
0.0045088
24.9777
0.021893
0.007323
24.9611
0.0311985
0.0109021
24.9381
0.0413826
0.0156106
24.9081
0.0524537
0.0219502
24.8701
0.0658562
0.0304874
24.8235
0.082776
0.0419473
24.7576
0.0995021
0.057177
24.6622
0.0959144
0.0769416
24.5839
0.00545888
0.10146
-0.00436706
0.00526876
-0.00320618
24.7175
-0.0376198
0.129386
-0.0577104
-0.0365935
-0.0557763
24.576
0.0222351
0.157317
-0.0938254
0.0247174
-0.0902243
24.7397
-0.213502
0.182726
-0.122509
-0.209693
-0.117691
24.8312
-0.12724
0.201322
-0.119423
-0.122584
-0.114003
24.8909
-0.116138
0.215002
-0.114559
-0.111367
-0.10921
24.9442
-0.113239
0.225734
-0.112936
-0.108318
-0.107897
25.0096
-0.115894
0.234181
-0.115208
-0.11115
-0.11044
25.0525
-0.113078
0.240642
-0.112174
-0.108693
-0.108416
25.0792
-0.110257
0.245186
-0.108965
-0.106722
-0.105126
25.0984
-0.41543
0.248013
25.1114
-0.401719
0.250163
25.1198
-0.390842
0.251941
25.1258
-0.386081
0.253985
25.1302
-0.382697
0.255332
25.1332
-0.379634
0.256491
25.1354
-0.376895
0.256849
25.1365
-0.374949
0.257277
25.137
-0.373351
0.257593
25.1379
-0.372777
0.257862
25.1377
-0.371162
0.258116
25.1375
-0.370781
0.258386
25.1377
-0.370526
0.258441
25.1371
-0.370127
0.259023
25.1363
-0.370337
0.259352
25.1357
-0.370742
0.259657
25.1352
-0.371586
0.259867
25.1348
-0.372691
0.259909
25.1353
-0.374053
0.259734
-0.37538
0.258747
24.9967
0.00577398
0.00199891
24.9903
0.0170052
0.00418644
24.9791
0.0294318
0.00681759
24.9627
0.042374
0.0101818
24.9396
0.0569951
0.0146504
24.9065
0.0750348
0.0207414
24.8617
0.0959883
0.0291495
24.8035
0.12048
0.0407595
24.7347
0.139675
0.0568459
6.14239
0.0379782
0.0790307
0.0531392
0.0376989
0.0527408
6.16199
6.14293
6.16171
-0.0114996
6.12495
0.016934
0.0174442
-0.0153436
-6.11291
6.10084
-0.0333928
0.0232371
-0.0192513
-6.1048
6.09727
0.0199203
0.0292077
-0.0229277
-6.11282
6.14494
-0.257461
0.0348664
-0.0253852
-6.16345
6.17765
-0.154723
0.0387076
-0.0268981
-6.19116
6.20217
-0.141358
0.0410895
-0.028077
-6.21326
6.22771
-0.142617
0.0429798
-0.0290872
-6.24053
6.24787
-0.138741
0.0445897
-0.0298987
-6.25375
6.2591
-0.134357
0.0458476
-0.0304681
-6.26291
6.26699
-0.13064
0.0467901
25.1081
-0.143692
0.267239
-0.144023
-0.144958
-0.143079
-6.2708
-6.27482
-6.27018
-6.27416
25.1143
-0.550698
0.268408
25.1165
-0.53574
0.269227
25.1178
-0.531607
0.271501
25.1174
-0.527613
0.273346
25.1152
-0.524144
0.275232
25.113
-0.522061
0.276356
25.1101
-0.520321
0.277516
25.1066
-0.518926
0.278491
25.1022
-0.51825
0.279305
25.0979
-0.517209
0.279973
25.0929
-0.516733
0.280513
25.0873
-0.515966
0.280659
25.0814
-0.515719
0.28121
25.075
-0.515513
0.281283
25.0686
-0.515734
0.281282
25.0615
-0.515661
0.280939
25.0545
-0.516397
0.280259
25.0488
-0.518059
0.279119
-0.518933
0.276938
24.9983
0.00546569
0.00178288
24.993
0.0203008
0.00373924
24.9834
0.0359252
0.00609054
24.9686
0.0525518
0.00909515
24.9463
0.0726232
0.0130996
24.9141
0.0981942
0.0183423
24.8652
0.131602
0.0262919
24.7924
0.174695
0.0371385
6.17313
0.225789
0.05273
6.16612
6.17384
6.16649
-0.00783169
6.15783
0.0491629
0.0119217
-0.0112133
6.13153
0.0170771
-6.16029
0.0197633
0.0114042
0.0199852
0.0111443
-0.039416
-0.0154614
-6.07874
6.04526
0.0236864
-0.00215626
0.00328741
-0.00229295
0.00331985
0.0232497
-0.0200805
-6.04348
6.05707
0.0309712
0.0521005
-0.0405327
0.0515836
-0.0401787
-0.0471625
-0.024233
-6.09766
6.13911
0.0375201
-0.0514854
-0.129401
-0.0520591
-0.128937
0.307415
-0.0255883
-6.17044
6.18237
0.0399371
-0.0504272
-0.0539188
-0.0508467
-0.053482
0.182506
-0.0259329
-6.19613
6.21041
0.0407113
-0.0508094
-0.0502797
-0.0510027
-0.0500665
0.173081
-0.0263626
-6.2242
6.23617
0.0415143
-0.0488601
-0.0487976
-0.0488882
-0.0487609
0.168165
-0.0269659
-6.24588
6.25319
0.0424679
-0.0459613
-0.0459799
-0.0462102
-0.0459829
0.161364
-0.0275711
-6.25976
6.26417
0.0434186
-0.0436883
-0.0438533
-0.0437775
-0.0437883
0.154926
-0.0280301
-6.26831
6.27043
0.0442062
-0.0418067
-0.0420241
-0.0416907
-0.0419041
0.149186
-6.27287
-0.0283473
6.27464
-0.161773
0.0446905
25.0528
-0.663079
0.259088
-6.27544
-6.26962
-6.27549
-6.26866
25.0238
-0.653926
0.257605
24.9932
-0.647244
0.256109
24.9626
-0.641874
0.253966
24.9339
-0.638914
0.251938
24.9064
-0.637294
0.250307
24.8808
-0.636319
0.248371
24.8567
-0.63587
0.246883
24.8335
-0.635609
0.245548
24.8116
-0.635433
0.2443
24.7909
-0.635227
0.242842
24.7709
-0.634825
0.241865
24.7514
-0.634087
0.240503
24.7327
-0.633458
0.239018
24.7144
-0.632611
0.237338
24.6972
-0.631886
0.235297
24.6812
-0.631539
0.232716
24.6667
-0.632205
0.229418
-0.634771
0.22493
25.0019
0.00200856
0.00152316
24.9996
0.0210491
0.00317918
24.9917
0.041106
0.0051467
24.9796
0.0608547
0.00763076
24.962
0.0847485
0.0109036
24.936
0.117036
0.0148511
24.8938
0.163044
0.0215389
24.8228
0.230619
0.0302244
6.17276
0.337106
0.0429503
6.17174
6.17321
6.17187
-0.00624646
-0.0641096
6.14733
0.0861211
0.00970429
-0.00206429
-0.0192141
-1.52809
1.52285
0.0237974
0.00272714
-0.00307666
-0.0184614
-1.50442
1.49179
0.0303125
0.0038962
-0.00435671
-1.46878
0.052372
1.47864
-0.0633232
0.005508
-0.00547093
-1.52816
0.153894
1.5397
-0.16692
0.00700076
-0.00520145
-1.53689
0.0605185
-0.0642334
1.53917
0.00666621
-1.54937
-0.00466458
0.0589734
-0.0632193
0.00597789
1.55231
-0.00423363
0.0556239
-1.55816
1.55959
-0.0584271
0.00560857
-0.00414337
0.0512155
-1.56235
1.56282
-0.0532125
0.00567514
-0.0042744
0.048371
-1.56325
1.56327
-0.0500326
0.00592157
-0.0044521
0.0458743
-1.56257
1.56219
-0.0471001
0.00606727
-1.55667
-0.0170939
0.171886
6.17185
-0.156466
0.02765
-1.5407
-1.55731
-1.54314
23.8234
-0.764451
0.123932
-6.10869
-5.80246
-6.09731
-5.79006
23.8349
-0.742403
0.12672
23.8448
-0.733476
0.126646
23.8547
-0.726091
0.12436
23.8648
-0.720465
0.121407
23.8747
-0.716098
0.118502
23.8851
-0.712672
0.115151
23.8958
-0.709929
0.112202
23.9068
-0.707676
0.109497
23.918
-0.705648
0.107033
23.9294
-0.703656
0.10454
23.9406
-0.701673
0.102664
23.952
-0.699553
0.100594
23.9632
-0.697324
0.098495
23.9745
-0.695025
0.0961994
23.9859
-0.692716
0.0935229
23.9974
-0.690467
0.0901692
24.0087
-0.688328
0.0856326
-0.686194
0.0788633
25.0088
0.000800114
0.00120684
25.0095
0.0191726
0.00252702
25.0059
0.0426172
0.004039
24.9991
0.0648451
0.00587414
24.989
0.0907912
0.00818712
24.9753
0.12571
0.0106841
24.9558
0.175106
0.0151012
24.9253
0.250957
0.0201832
6.21383
0.377014
0.0270673
6.22175
6.21392
6.22189
-0.00375943
-0.104054
6.19835
0.117456
0.00585142
-0.00118785
-0.0389955
-1.54208
1.53593
0.0447845
0.00155417
-0.001828
-0.0823694
-1.50602
1.48763
0.100456
0.00215594
-0.000212006
0.00442776
-0.0747073
0.0749523
-0.00468501
0.000223808
0.0026966
-0.205709
0.012427
-0.0230936
-0.00380311
0.21748
-1.15815
-9.40695e-05
0.057977
-0.0778436
-0.00411285
1.18221
0.000875437
0.0517186
-1.23642
1.24847
-0.0599825
-0.00465999
0.00179596
0.0526825
-1.28355
1.29488
-0.061254
-0.00454871
0.00248949
0.0502815
-1.32263
1.33061
-0.0566467
-0.00409734
0.00329963
0.0480065
-1.34902
1.35528
-0.053805
-0.00375972
-1.39081
0.0158221
0.182204
5.79101
-0.212431
-0.0246996
-1.49396
-1.3774
-1.48974
24.1191
-0.68847
-0.187494
-5.8559
-6.16882
-5.88643
-6.17176
24.1508
-0.662004
-0.188957
24.1804
-0.652173
-0.18896
24.2089
-0.64445
-0.189024
24.2356
-0.637667
-0.188809
24.2603
-0.632144
-0.188182
24.2833
-0.627844
-0.187138
24.3046
-0.624392
-0.18566
24.3242
-0.621641
-0.183734
24.3422
-0.619396
-0.181364
24.3587
-0.617717
-0.178627
24.3741
-0.616615
-0.175597
24.3889
-0.615895
-0.172486
24.4029
-0.615156
-0.169406
24.4165
-0.614477
-0.16658
24.4296
-0.613763
-0.164246
24.4426
-0.612891
-0.16277
24.4553
-0.611312
-0.162569
-0.607912
-0.164302
25.0081
-0.00418379
0.000926586
25.015
0.0113624
0.00186083
25.0216
0.0347259
0.00288115
25.0253
0.059248
0.00401202
25.0245
0.0891681
0.00527076
25.0287
0.118636
0.00638836
25.0404
0.159526
0.00800063
25.0685
0.218451
0.00901508
6.27587
0.308456
0.00911671
6.28802
6.27716
6.29114
-0.000976367
-0.108984
6.28333
0.100997
0.00148361
-0.000156393
-0.044134
-1.57784
1.57957
0.0423796
0.000175605
7.37198e-05
-0.0817401
-1.60037
1.61711
0.0651326
-0.000235123
0.000535105
-0.0263758
-1.71355
1.75137
0.0589205
0.000211274
-0.0218039
-0.0273122
-0.0220447
0.00298879
0.111288
-1.71191
1.68075
-0.0795437
-0.00362768
0.106871
-1.60952
0.00422128
1.59811
-0.0943513
-0.00537094
0.00471858
0.0749493
-1.58242
-0.00602372
1.58012
-0.071376
0.00489496
0.054257
-1.57673
1.57525
-0.0513266
-0.00635279
0.00496731
0.0560929
-1.57449
1.5731
-0.0531209
-0.00653892
0.00504728
0.0504705
-1.57235
1.57172
-0.0482254
-0.00666944
0.00512661
0.0469138
-1.56901
1.56934
-0.0456307
-0.00674514
-1.5695
0.0228295
0.178625
6.27279
-0.158242
-0.0367912
-1.56963
-1.56971
-1.5704
25.0821
-0.536865
-0.241346
-6.27548
-6.26836
-6.28091
-6.27384
25.0829
-0.527115
-0.243132
25.0808
-0.514265
-0.243908
25.0784
-0.50575
-0.245011
25.0759
-0.498393
-0.246099
25.0739
-0.492972
-0.246977
25.0719
-0.488332
-0.247644
25.07
-0.484573
-0.248112
25.0682
-0.481559
-0.248386
25.0663
-0.478959
-0.248483
25.0644
-0.477157
-0.248449
25.0629
-0.476153
-0.248569
25.0613
-0.475517
-0.248212
25.0596
-0.474619
-0.248169
25.0585
-0.47468
-0.248307
25.0578
-0.474287
-0.248834
25.0576
-0.473641
-0.249939
25.0581
-0.472046
-0.251811
-0.469855
-0.254379
25.0067
-0.00860529
0.00061673
25.0167
0.000883551
0.00121631
25.0307
0.0199856
0.00177948
25.0389
0.0500903
0.00224897
25.0564
0.0707311
0.00251874
25.0797
0.0944784
0.00239273
25.1174
0.121419
0.00149956
25.1827
0.153877
-0.00086423
6.32971
0.194868
-0.00597569
6.31872
6.33384
6.31718
-0.0857101
0.0013084
6.34805
0.0681463
-0.00205776
-0.0328944
0.00330036
6.42204
0.0870992
-0.00489018
-0.030912
-0.0330181
-0.0299285
-6.38075
-0.0294467
0.00689991
6.49383
0.0813279
-0.0103524
-0.0288816
-0.0284166
-0.0310854
-6.45395
-0.00933806
0.0119457
-6.54246
6.50154
-0.0584219
-0.0186972
0.0630897
-0.0104831
0.062591
0.0354993
0.0185342
-6.494
6.47498
-0.145339
-0.0281423
0.0520477
0.0348582
0.0513392
0.0586821
-6.45075
0.023344
6.40665
-0.184158
-0.0351831
0.0579279
0.0620804
0.0612994
0.0561894
0.0259234
-6.36634
6.33855
-0.177894
-0.0392347
0.0541932
0.055286
0.0533489
0.0458121
0.0275358
-6.32479
6.31775
-0.159508
-0.04178
0.0452166
0.0451229
0.0446797
0.0446174
0.0285582
-6.31334
6.30519
-0.155524
-0.0433803
0.045189
0.0440432
0.0446376
0.0439271
0.0290815
-6.29619
6.28696
-0.145469
-0.0443013
0.041478
0.0434503
0.0410165
0.039004
0.029346
-6.27932
6.27139
-0.128631
-0.0447991
0.0360513
0.0395829
0.0373362
0.139433
-6.26984
0.0296062
6.27015
-0.124293
-0.0450739
25.0656
-0.394681
-0.25689
-6.26862
-6.26696
-6.26921
-6.26678
25.0595
-0.385312
-0.256471
25.0565
-0.376116
-0.256045
25.0546
-0.368674
-0.256022
25.0541
-0.362901
-0.255854
25.0538
-0.357934
-0.255438
25.0541
-0.354304
-0.254812
25.0549
-0.351412
-0.254026
25.0555
-0.348686
-0.253138
25.0565
-0.347046
-0.252205
25.0571
-0.345422
-0.251264