/*--------------------------------*- C++ -*----------------------------------*\
| =========                 |                                                 |
| \\      /  F ield         | OpenFOAM: The Open Source CFD Toolbox           |
|  \\    /   O peration     | Version:  2306                                  |
|   \\  /    A nd           | Website:  www.openfoam.com                      |
|    \\/     M anipulation  |                                                 |
\*---------------------------------------------------------------------------*/
FoamFile
{
    version     2.0;
    format      ascii;
    arch        "LSB;label=32;scalar=64";
    class       volVectorField;
    location    "0.55";
    object      U;
}
// * * * * * * * * * * * * * * * * * * * * * * * * * * * * * * * * * * * * * //

dimensions      [0 1 -1 0 0 0 0];

internalField   nonuniform List<vector> 
111542
(
(99.9933 0.00581693 0.00233923)
(99.971 0.0118885 0.00495711)
(99.9294 0.018148 0.00794554)
(99.8672 0.0247131 0.0117494)
(99.783 0.031303 0.0167499)
(99.6748 0.0371227 0.0234055)
(99.5417 0.0402926 0.0320068)
(99.3859 0.037824 0.0430866)
(99.2167 0.0250542 0.0571938)
(99.0542 -0.00448094 0.0743804)
(98.9315 -0.056654 0.094171)
(98.8896 -0.129211 0.115533)
(98.9558 -0.203995 0.137309)
(99.1219 -0.261191 0.157502)
(99.3436 -0.289731 0.174799)
(99.5715 -0.298962 0.189209)
(99.7766 -0.297941 0.200966)
(99.9497 -0.29163 0.210591)
(100.09 -0.283152 0.218299)
(100.202 -0.274516 0.224354)
(100.289 -0.266906 0.228735)
(100.354 -0.26052 0.231829)
(100.403 -0.255101 0.234147)
(100.44 -0.250986 0.235652)
(100.468 -0.247992 0.236504)
(100.491 -0.245695 0.23702)
(100.509 -0.244231 0.237099)
(100.523 -0.243478 0.236887)
(100.534 -0.243129 0.236652)
(100.543 -0.243054 0.236478)
(100.551 -0.243211 0.236392)
(100.557 -0.243638 0.236369)
(100.561 -0.244176 0.236579)
(100.565 -0.244811 0.237041)
(100.569 -0.24558 0.237706)
(100.573 -0.246533 0.238503)
(100.577 -0.247751 0.239295)
(100.582 -0.249112 0.240149)
(100.589 -0.250636 0.241016)
(100.602 -0.252525 0.241892)
(99.9936 0.0173207 0.00229878)
(99.9717 0.0353257 0.0048164)
(99.9306 0.0542727 0.0078095)
(99.8689 0.0744382 0.0116137)
(99.7842 0.0951594 0.0166018)
(99.6728 0.114302 0.0232241)
(99.5318 0.126899 0.0319622)
(99.3604 0.124087 0.0433876)
(99.1648 0.091182 0.0580513)
(98.9634 0.00702772 0.0762023)
(98.7978 -0.146003 0.0975782)
(98.7346 -0.362119 0.120327)
(98.8194 -0.588898 0.143692)
(99.0317 -0.753555 0.165223)
(99.2994 -0.836152 0.183154)
(99.5566 -0.865864 0.197523)
(99.7769 -0.86539 0.209133)
(99.957 -0.848964 0.218574)
(100.1 -0.826266 0.226052)
(100.21 -0.802425 0.231709)
(100.294 -0.780176 0.235755)
(100.356 -0.761889 0.23876)
(100.402 -0.74767 0.241074)
(100.435 -0.736931 0.242706)
(100.461 -0.727679 0.243708)
(100.481 -0.718851 0.24425)
(100.497 -0.710984 0.24446)
(100.509 -0.704351 0.244482)
(100.519 -0.698769 0.244453)
(100.528 -0.694168 0.244463)
(100.535 -0.690591 0.244565)
(100.54 -0.688129 0.244797)
(100.545 -0.686635 0.245213)
(100.549 -0.686108 0.245822)
(100.552 -0.686606 0.246591)
(100.556 -0.688188 0.247469)
(100.56 -0.690914 0.248383)
(100.564 -0.694564 0.249292)
(100.571 -0.699026 0.250155)
(100.581 -0.704223 0.251035)
(99.9939 0.0283609 0.00219784)
(99.9731 0.0579066 0.00461315)
(99.9338 0.0897246 0.00751983)
(99.8736 0.124516 0.0112283)
(99.7888 0.1619 0.0161193)
(99.6732 0.199463 0.0226834)
(99.519 0.230829 0.0315145)
(99.3188 0.2423 0.043323)
(99.0695 0.207157 0.0588951)
(98.7882 0.0767876 0.0789045)
(98.5338 -0.258519 0.103643)
(98.4193 -0.724067 0.131645)
(98.5423 -1.14707 0.157147)
(98.8507 -1.39035 0.179819)
(99.2021 -1.48897 0.197365)
(99.5096 -1.51616 0.210553)
(99.7582 -1.49882 0.221027)
(99.9518 -1.46102 0.229529)
(100.099 -1.41759 0.236119)
(100.208 -1.37444 0.240762)
(100.287 -1.33558 0.243449)
(100.343 -1.30034 0.245541)
(100.382 -1.27874 0.247576)
(100.412 -1.26865 0.249214)
(100.436 -1.26229 0.250186)
(100.455 -1.25623 0.250517)
(100.469 -1.25032 0.250359)
(100.479 -1.24482 0.249876)
(100.486 -1.23971 0.249231)
(100.492 -1.23505 0.248577)
(100.496 -1.23098 0.24804)
(100.499 -1.22769 0.247718)
(100.5 -1.22529 0.247683)
(100.501 -1.22393 0.247969)
(100.5 -1.22376 0.248565)
(100.5 -1.22493 0.249421)
(100.499 -1.22752 0.250453)
(100.499 -1.2315 0.251565)
(100.501 -1.23661 0.252706)
(100.505 -1.24224 0.254007)
(99.9946 0.038416 0.00204043)
(99.9759 0.0787672 0.00429561)
(99.9402 0.123173 0.00702155)
(99.8844 0.173469 0.0105145)
(99.8029 0.230689 0.0151542)
(99.6865 0.294204 0.0214519)
(99.5205 0.359716 0.030082)
(99.2842 0.414629 0.0419102)
(98.9484 0.429231 0.0580551)
(98.4482 0.228814 0.0799862)
(98.1898 0.0489081 0.0867829)
(97.8393 -0.610212 0.102543)
(97.9021 -1.41719 0.11601)
(98.3829 -1.93619 0.126245)
(98.8922 -2.08688 0.135203)
(99.2951 -2.11395 0.140633)
(99.6178 -2.07146 0.144531)
(99.858 -1.9974 0.147569)
(100.032 -1.91988 0.149677)
(100.159 -1.85117 0.150755)
(100.32 -1.90797 0.240198)
(100.358 -1.83925 0.241621)
(100.369 -1.78846 0.243525)
(100.376 -1.75602 0.245443)
(100.385 -1.73317 0.246981)
(100.391 -1.71666 0.247937)
(100.392 -1.70505 0.248239)
(100.388 -1.69694 0.247943)
(100.382 -1.69127 0.247197)
(100.373 -1.68746 0.246183)
(100.361 -1.68519 0.245092)
(100.347 -1.68432 0.244107)
(100.331 -1.68481 0.243376)
(100.313 -1.68669 0.243002)
(100.292 -1.69005 0.243025)
(100.269 -1.69501 0.243417)
(100.246 -1.7017 0.244073)
(100.221 -1.71016 0.24485)
(100.198 -1.72012 0.245624)
(100.171 -1.72999 0.246531)
(99.9956 0.0467257 0.00182464)
(99.9805 0.0962595 0.00384933)
(99.9512 0.15199 0.00629209)
(99.9043 0.217463 0.00941364)
(99.8335 0.296285 0.0135616)
(99.7272 0.39203 0.0192123)
(99.5658 0.50742 0.0270275)
(99.3166 0.641126 0.0378883)
(98.8741 0.779859 0.0529904)
(98.5294 0.787278 0.0584514)
(97.7137 0.397169 0.0724397)
(96.9041 -0.671522 0.0901898)
(96.9954 -2.33074 0.103128)
(98.1275 -2.93622 0.109427)
(98.8649 -2.9552 0.116261)
(99.3462 -2.89423 0.118977)
(99.712 -2.758 0.120814)
(99.9504 -2.61242 0.1222)
(100.106 -2.4838 0.122239)
(100.205 -2.38071 0.120565)
(100.272 -2.32288 0.117213)
(100.208 -2.45633 0.196151)
(100.091 -2.44935 0.19705)
(99.9799 -2.42355 0.197372)
(99.8812 -2.39071 0.197175)
(99.7877 -2.36012 0.196179)
(99.6977 -2.33348 0.194035)
(99.6113 -2.31008 0.190712)
(99.5285 -2.28938 0.186485)
(99.4486 -2.27116 0.181814)
(99.3711 -2.25524 0.177221)
(99.2953 -2.24152 0.173203)
(99.2208 -2.22995 0.170145)
(99.1473 -2.22063 0.168269)
(99.0746 -2.21371 0.167613)
(99.0026 -2.20942 0.168028)
(98.9318 -2.20805 0.169192)
(98.863 -2.21003 0.170677)
(98.7988 -2.21618 0.172023)
(98.7327 -2.22839 0.172891)
(99.9971 0.0523513 0.00155423)
(99.9871 0.108327 0.00328082)
(99.9675 0.172555 0.00533662)
(99.9353 0.250406 0.00791963)
(99.885 0.348548 0.011296)
(99.8061 0.476158 0.0158261)
(99.6796 0.646816 0.0220057)
(99.4685 0.880843 0.0304789)
(99.0489 1.20989 0.0420657)
(98.639 1.37238 0.0467505)
(97.6815 1.51442 0.0455399)
(95.5626 0.740363 0.0431272)
(94.359 -3.41825 0.0565541)
(98.1841 -4.70193 0.0407111)
(98.7384 -3.85785 0.0435695)
(99.3434 -3.73305 0.0212987)
(99.7362 -3.45366 -0.00907805)
(99.8861 -3.19402 -0.0229791)
(99.9181 -2.99605 -0.0145588)
(99.88 -2.81525 0.00879581)
(98.9012 -2.53384 0.0353384)
(95.2758 -2.17548 0.0672841)
(95.3277 -2.2547 0.0775553)
(95.399 -2.29909 0.0834525)
(95.4579 -2.32476 0.0865655)
(95.5079 -2.3428 0.0876872)
(95.5552 -2.35589 0.0871009)
(95.6012 -2.36466 0.0850474)
(95.6455 -2.37003 0.0818199)
(95.6876 -2.37314 0.0777433)
(95.7277 -2.37498 0.0731448)
(95.7662 -2.37643 0.0683292)
(95.8035 -2.3782 0.0635351)
(95.84 -2.38091 0.0589154)
(95.8762 -2.38504 0.0545106)
(95.9124 -2.39093 0.0502457)
(95.9489 -2.39885 0.0459238)
(95.9858 -2.40913 0.041244)
(96.0227 -2.42259 0.0358485)
(96.0653 -2.44185 0.0295621)
(99.9989 0.0543714 0.00125586)
(99.9954 0.112874 0.00262962)
(99.9881 0.180958 0.00421255)
(99.9757 0.265252 0.00612063)
(99.9556 0.374606 0.0084932)
(99.9229 0.522477 0.0114971)
(99.8693 0.730842 0.0153046)
(99.7802 1.03832 0.0200206)
(99.6078 1.51858 0.0255571)
(99.3391 1.91999 0.028072)
(98.615 2.85899 0.0263111)
(95.4386 5.85601 0.0263244)
(77.0973 -4.365 0.0445583)
(102.724 -10.2935 0.0207143)
(50.3511 -2.50739 -0.765847)
(74.9713 -4.31997 -0.135953)
(78.7749 -3.59713 -0.107289)
(81.4744 -3.21387 -0.096958)
(83.4974 -2.93696 -0.0940428)
(85.1107 -2.76734 -0.0863427)
(91.9556 -3.36524 0.0163383)
(96.0365 -3.13738 -0.115019)
(96.1766 -3.02067 -0.124625)
(96.3244 -2.93865 -0.130927)
(96.443 -2.87757 -0.135117)
(96.5406 -2.82826 -0.137355)
(96.6285 -2.78697 -0.137854)
(96.7114 -2.75182 -0.137048)
(96.7907 -2.72164 -0.135443)
(96.8674 -2.69565 -0.13353)
(96.9424 -2.67335 -0.131749)
(97.0163 -2.65445 -0.130468)
(97.0894 -2.63867 -0.129964)
(97.1619 -2.62579 -0.130407)
(97.2337 -2.61552 -0.131875)
(97.305 -2.60754 -0.134382)
(97.3757 -2.60141 -0.137935)
(97.4457 -2.59653 -0.142539)
(97.5144 -2.59187 -0.148201)
(97.5958 -2.58513 -0.154622)
(100.001 0.0523363 0.00101713)
(100.004 0.108694 0.0020103)
(100.011 0.174714 0.0030811)
(100.02 0.257197 0.00425576)
(100.035 0.365209 0.00552941)
(100.056 0.512297 0.00684851)
(100.09 0.719846 0.0080368)
(100.153 1.02368 0.00863976)
(100.299 1.48612 0.00768863)
(100.348 1.89808 0.00743694)
(100.622 2.88663 0.00395089)
(102.427 5.43592 0.000560854)
(111.177 4.09133 -0.0180326)
(109.163 -6.75533 0.0219426)
(102.775 -6.76476 -0.0280384)
(101.093 -4.90192 -0.0236328)
(100.65 -3.87113 -0.0137483)
(100.484 -3.30867 -0.0129108)
(100.407 -2.98604 -0.0196504)
(100.343 -2.80333 -0.0287803)
(100.245 -2.61034 -0.0894327)
(100.267 -2.25532 -0.197673)
(100.247 -2.15523 -0.200042)
(100.235 -2.09391 -0.201467)
(100.229 -2.05613 -0.203151)
(100.224 -2.02946 -0.20499)
(100.22 -2.00963 -0.20651)
(100.218 -1.99539 -0.207468)
(100.218 -1.98578 -0.207849)
(100.218 -1.97991 -0.207776)
(100.219 -1.97706 -0.207454)
(100.218 -1.97669 -0.207136)
(100.218 -1.9783 -0.207079)
(100.217 -1.98147 -0.207508)
(100.215 -1.98574 -0.208602)
(100.214 -1.99061 -0.210493)
(100.212 -1.9955 -0.213287)
(100.211 -1.9996 -0.217055)
(100.213 -2.00159 -0.221809)
(100.22 -1.99889 -0.227306)
(100.003 0.0459252 0.000639588)
(100.013 0.0954022 0.00129755)
(100.032 0.153392 0.0019259)
(100.062 0.225732 0.00243229)
(100.107 0.319849 0.00269708)
(100.175 0.445835 0.00249979)
(100.28 0.617821 0.00141382)
(100.448 0.855271 -0.00133999)
(100.767 1.18258 -0.00719557)
(100.993 1.4229 -0.00941975)
(101.85 1.88092 -0.0170426)
(103.472 1.78686 -0.0301818)
(105.271 -0.224747 -0.0448113)
(104.818 -2.83022 -0.0255667)
(103 -3.54923 -0.0432376)
(101.769 -3.32309 -0.0569394)
(101.131 -2.96328 -0.06533)
(100.788 -2.66145 -0.0707049)
(100.589 -2.43762 -0.0743105)
(100.457 -2.27334 -0.0769596)
(100.362 -2.14339 -0.0793247)
(100.261 -1.87816 -0.231343)
(100.229 -1.84018 -0.232449)
(100.209 -1.80983 -0.233027)
(100.199 -1.78668 -0.233435)
(100.195 -1.76756 -0.233695)
(100.194 -1.7508 -0.233731)
(100.196 -1.73617 -0.233559)
(100.199 -1.7237 -0.233255)
(100.202 -1.71328 -0.232895)
(100.206 -1.70475 -0.232544)
(100.209 -1.69798 -0.232264)
(100.211 -1.69274 -0.232112)
(100.213 -1.68879 -0.23215)
(100.214 -1.68574 -0.232444)
(100.215 -1.68319 -0.233071)
(100.216 -1.68065 -0.234117)
(100.218 -1.67754 -0.235678)
(100.223 -1.67338 -0.237851)
(100.238 -1.66806 -0.240741)
(100.004 0.0356486 0.000442782)
(100.02 0.0741142 0.000852636)
(100.049 0.119043 0.00109048)
(100.095 0.174659 0.00102886)
(100.164 0.245927 0.000477341)
(100.264 0.3386 -0.000902382)
(100.412 0.458877 -0.00366605)
(100.632 0.611136 -0.00871351)
(100.969 0.791477 -0.0175113)
(101.458 0.875188 -0.0319498)
(102.103 0.776173 -0.0537705)
(102.784 0.244372 -0.0832563)
(103.146 -0.750388 -0.115434)
(102.897 -1.58749 -0.143848)
(102.248 -1.89718 -0.171845)
(101.608 -1.90431 -0.194118)
(101.152 -1.81963 -0.209546)
(100.855 -1.71596 -0.220075)
(100.656 -1.61785 -0.227354)
(100.517 -1.531 -0.232269)
(100.42 -1.45495 -0.235411)
(100.357 -1.38586 -0.237163)
(100.315 -1.3292 -0.238304)
(100.286 -1.28178 -0.238997)
(100.267 -1.24296 -0.239265)
(100.255 -1.21144 -0.239189)
(100.247 -1.18566 -0.238874)
(100.242 -1.16463 -0.238425)
(100.238 -1.14768 -0.237937)
(100.236 -1.13429 -0.237495)
(100.235 -1.12396 -0.237176)
(100.234 -1.11625 -0.237044)
(100.232 -1.11076 -0.237153)
(100.231 -1.10707 -0.237543)
(100.229 -1.1047 -0.238253)
(100.228 -1.10323 -0.239314)
(100.228 -1.1022 -0.240759)
(100.229 -1.10117 -0.242623)
(100.232 -1.09983 -0.244951)
(100.239 -1.09819 -0.247791)
(100.005 0.0226222 0.000284462)
(100.024 0.0469073 0.000474735)
(100.061 0.0752368 0.000440016)
(100.118 0.109884 1.60576e-05)
(100.201 0.153701 -0.00108216)
(100.319 0.20903 -0.00322085)
(100.485 0.277266 -0.00698898)
(100.715 0.355841 -0.0132228)
(101.027 0.431752 -0.0230813)
(101.431 0.465661 -0.0378705)
(101.899 0.401241 -0.0586471)
(102.333 0.163151 -0.0855131)
(102.558 -0.259587 -0.115729)
(102.441 -0.692609 -0.144735)
(102.048 -0.94039 -0.170886)
(101.582 -1.00269 -0.191937)
(101.195 -0.976061 -0.207752)
(100.914 -0.923757 -0.219145)
(100.713 -0.8695 -0.227298)
(100.565 -0.81982 -0.23298)
(100.456 -0.776928 -0.236728)
(100.377 -0.743118 -0.238994)
(100.32 -0.718602 -0.240285)
(100.28 -0.701085 -0.240805)
(100.252 -0.688655 -0.240695)
(100.233 -0.680075 -0.240124)
(100.22 -0.674281 -0.239266)
(100.212 -0.670496 -0.238262)
(100.206 -0.668262 -0.237225)
(100.203 -0.667296 -0.236249)
(100.201 -0.667359 -0.235409)
(100.2 -0.66826 -0.234762)
(100.199 -0.669812 -0.234346)
(100.199 -0.671866 -0.23419)
(100.199 -0.673956 -0.234344)
(100.2 -0.676019 -0.234802)
(100.201 -0.677862 -0.235572)
(100.205 -0.679271 -0.236684)
(100.211 -0.680093 -0.238203)
(100.226 -0.680148 -0.240307)
(100.006 0.00775191 0.000193307)
(100.027 0.0160222 0.000320569)
(100.067 0.0257022 0.000117617)
(100.129 0.0374039 -0.000429992)
(100.219 0.0521531 -0.00181645)
(100.344 0.0704733 -0.00432648)
(100.516 0.0923412 -0.00858641)
(100.745 0.116253 -0.0153172)
(101.039 0.137071 -0.025651)
(101.392 0.14214 -0.0403415)
(101.769 0.111434 -0.0600093)
(102.094 0.0241851 -0.0844098)
(102.261 -0.116365 -0.111795)
(102.194 -0.262418 -0.139261)
(101.917 -0.355939 -0.163715)
(101.548 -0.385914 -0.184065)
(101.205 -0.381235 -0.200058)
(100.935 -0.366439 -0.211879)
(100.732 -0.35067 -0.220485)
(100.58 -0.336111 -0.226566)
(100.466 -0.323348 -0.230661)
(100.382 -0.312732 -0.233187)
(100.322 -0.303786 -0.234519)
(100.28 -0.295828 -0.234883)
(100.251 -0.288255 -0.234624)
(100.231 -0.280899 -0.233939)
(100.218 -0.273718 -0.23298)
(100.209 -0.266729 -0.23189)
(100.203 -0.260011 -0.230788)
(100.2 -0.253658 -0.229777)
(100.197 -0.247749 -0.228938)
(100.196 -0.242335 -0.228328)
(100.194 -0.237453 -0.227977)
(100.193 -0.233141 -0.227859)
(100.193 -0.229165 -0.228195)
(100.193 -0.225598 -0.228857)
(100.194 -0.222416 -0.229815)
(100.197 -0.219575 -0.23109)
(100.202 -0.217143 -0.232739)
(100.212 -0.215583 -0.234957)
(99.9935 0.005777 0.00699785)
(99.9714 0.0117491 0.0146797)
(99.9302 0.0180151 0.0236605)
(99.869 0.0245838 0.0350186)
(99.7863 0.0311645 0.0498243)
(99.68 0.0369571 0.0693341)
(99.5495 0.0402672 0.0946802)
(99.397 0.0381425 0.127354)
(99.2315 0.0259208 0.168727)
(99.0723 -0.00269288 0.219115)
(98.9516 -0.0534166 0.277522)
(98.9099 -0.124602 0.341012)
(98.9731 -0.197512 0.405158)
(99.1331 -0.253028 0.464569)
(99.3475 -0.280792 0.515445)
(99.5687 -0.289882 0.557449)
(99.769 -0.28886 0.591467)
(99.9393 -0.282619 0.618887)
(100.079 -0.274295 0.640526)
(100.192 -0.266049 0.657147)
(100.28 -0.258702 0.669208)
(100.349 -0.252365 0.677783)
(100.401 -0.246931 0.684049)
(100.442 -0.242681 0.688317)
(100.473 -0.239525 0.690964)
(100.498 -0.237196 0.692512)
(100.517 -0.235585 0.693006)
(100.532 -0.234577 0.692799)
(100.543 -0.233996 0.69236)
(100.551 -0.233706 0.691887)
(100.557 -0.233634 0.691471)
(100.561 -0.233753 0.691135)
(100.564 -0.234035 0.691115)
(100.566 -0.234479 0.691429)
(100.567 -0.235097 0.691978)
(100.569 -0.235925 0.692616)
(100.571 -0.236983 0.693108)
(100.575 -0.238257 0.693435)
(100.581 -0.239766 0.693405)
(100.594 -0.241632 0.692814)
(99.9937 0.017181 0.00685614)
(99.972 0.0349865 0.0143387)
(99.9316 0.053857 0.0232485)
(99.8709 0.0739353 0.0345379)
(99.7878 0.0945595 0.0492854)
(99.6787 0.113637 0.0687985)
(99.5408 0.126492 0.0945411)
(99.3735 0.124429 0.128209)
(99.1825 0.0929762 0.171421)
(98.9859 0.01154 0.225087)
(98.8236 -0.137036 0.288614)
(98.7619 -0.346559 0.35856)
(98.8447 -0.568602 0.429217)
(99.0507 -0.731627 0.493454)
(99.3103 -0.813639 0.546417)
(99.5603 -0.844151 0.588619)
(99.7756 -0.84456 0.622295)
(99.9528 -0.828928 0.649197)
(100.094 -0.807129 0.670163)
(100.205 -0.784536 0.685784)
(100.289 -0.763744 0.696835)
(100.354 -0.746293 0.704976)
(100.402 -0.732251 0.711199)
(100.437 -0.721309 0.715667)
(100.465 -0.711896 0.71855)
(100.486 -0.70321 0.720262)
(100.503 -0.695525 0.721177)
(100.515 -0.68909 0.721635)
(100.525 -0.683807 0.721904)
(100.533 -0.679545 0.722136)
(100.539 -0.676251 0.722416)
(100.543 -0.67391 0.722808)
(100.546 -0.672473 0.723381)
(100.548 -0.67195 0.724132)
(100.55 -0.672376 0.72498)
(100.552 -0.673777 0.725798)
(100.555 -0.676185 0.726421)
(100.559 -0.679535 0.726693)
(100.564 -0.683702 0.726436)
(100.575 -0.688488 0.725541)
(99.994 0.0281048 0.00655167)
(99.9735 0.0573933 0.0137332)
(99.9348 0.088953 0.0223569)
(99.8759 0.123448 0.0333425)
(99.793 0.160505 0.0478093)
(99.6801 0.197794 0.0671936)
(99.5298 0.229123 0.0932733)
(99.3347 0.241085 0.128203)
(99.092 0.207488 0.174368)
(98.818 0.0806409 0.23384)
(98.5704 -0.247008 0.307086)
(98.4587 -0.702734 0.389707)
(98.578 -1.11764 0.470976)
(98.8781 -1.35881 0.541714)
(99.2195 -1.45903 0.595743)
(99.5189 -1.48879 0.636174)
(99.7625 -1.47339 0.667739)
(99.9533 -1.43708 0.692787)
(100.098 -1.39497 0.711888)
(100.207 -1.35313 0.725272)
(100.286 -1.31591 0.733119)
(100.343 -1.28182 0.739136)
(100.384 -1.2605 0.74494)
(100.414 -1.25022 0.749824)
(100.438 -1.24356 0.753187)
(100.456 -1.23732 0.755208)
(100.47 -1.23143 0.756332)
(100.479 -1.22613 0.756912)
(100.485 -1.22138 0.757188)
(100.49 -1.21717 0.75733)
(100.493 -1.21355 0.757452)
(100.495 -1.21067 0.757629)
(100.496 -1.20865 0.757901)
(100.496 -1.20761 0.758262)
(100.495 -1.2077 0.75865)
(100.494 -1.20906 0.758938)
(100.493 -1.21179 0.758942)
(100.492 -1.2159 0.758447)
(100.493 -1.2212 0.757293)
(100.499 -1.22693 0.755604)
(99.9946 0.0380464 0.0060753)
(99.9763 0.078014 0.0127718)
(99.9413 0.121968 0.0208475)
(99.8868 0.171697 0.0311876)
(99.8074 0.228207 0.0449241)
(99.6941 0.290883 0.0635782)
(99.5326 0.355504 0.0891994)
(99.3027 0.409671 0.124475)
(98.9754 0.424063 0.172906)
(98.4868 0.227013 0.238869)
(98.2289 0.0442404 0.272099)
(97.8855 -0.617195 0.348782)
(97.951 -1.421 0.427843)
(98.4272 -1.94637 0.496301)
(98.9259 -2.10476 0.544022)
(99.3216 -2.14055 0.575122)
(99.6401 -2.10363 0.598248)
(99.8776 -2.03242 0.617126)
(100.049 -1.95641 0.632157)
(100.174 -1.88856 0.643067)
(100.321 -1.93133 0.759166)
(100.357 -1.86044 0.763123)
(100.366 -1.80969 0.767779)
(100.37 -1.77949 0.772718)
(100.375 -1.75991 0.777292)
(100.377 -1.74714 0.781315)
(100.375 -1.73956 0.784821)
(100.368 -1.73553 0.787889)
(100.358 -1.73373 0.790578)
(100.346 -1.73332 0.79291)
(100.332 -1.73382 0.794889)
(100.316 -1.73498 0.79651)
(100.297 -1.7367 0.79777)
(100.277 -1.73904 0.798646)
(100.254 -1.7421 0.799082)
(100.23 -1.74613 0.798957)
(100.205 -1.75136 0.798059)
(100.179 -1.75807 0.796092)
(100.155 -1.76624 0.792756)
(100.128 -1.77467 0.788051)
(99.9956 0.0462441 0.00542399)
(99.9809 0.0952576 0.0114234)
(99.9524 0.150332 0.0186514)
(99.9068 0.214917 0.0278941)
(99.838 0.292516 0.0401992)
(99.7348 0.38658 0.05702)
(99.578 0.499688 0.0804091)
(99.3355 0.630344 0.11319)
(98.9032 0.765 0.159208)
(98.561 0.767265 0.185518)
(97.7559 0.376239 0.252981)
(96.9573 -0.689361 0.3389)
(97.053 -2.33872 0.430881)
(98.1734 -2.9557 0.5009)
(98.8949 -2.99261 0.532179)
(99.3706 -2.95102 0.541403)
(99.7359 -2.8275 0.548345)
(99.9743 -2.689 0.558409)
(100.127 -2.56581 0.569381)
(100.222 -2.46831 0.578338)
(100.284 -2.4117 0.583913)
(100.178 -2.56622 0.682689)
(100.04 -2.54837 0.684013)
(99.9095 -2.51904 0.68169)
(99.7934 -2.48741 0.678221)
(99.6839 -2.46111 0.674698)
(99.579 -2.44078 0.671341)
(99.4793 -2.42483 0.668292)
(99.3848 -2.41201 0.665673)
(99.2951 -2.40152 0.663501)
(99.2097 -2.39276 0.661684)
(99.1279 -2.38524 0.660078)
(99.0494 -2.37866 0.658518)
(98.9737 -2.37289 0.656838)
(98.9005 -2.36799 0.654844)
(98.8296 -2.36415 0.652287)
(98.7612 -2.36177 0.648765)
(98.696 -2.36157 0.643714)
(98.6365 -2.3648 0.636428)
(98.5779 -2.37402 0.626446)
(99.9971 0.0517865 0.00462562)
(99.9875 0.107119 0.00971092)
(99.9685 0.170499 0.0157727)
(99.9375 0.247157 0.0234185)
(99.8889 0.34356 0.0334642)
(99.8127 0.468604 0.0470439)
(99.6899 0.635419 0.0657446)
(99.4842 0.863635 0.0917599)
(99.0727 1.18376 0.12797)
(98.6663 1.3425 0.150086)
(97.7175 1.47928 0.181568)
(95.6179 0.703772 0.240346)
(94.4191 -3.44613 0.33091)
(98.2459 -4.73343 0.399915)
(98.781 -3.91292 0.386448)
(99.3847 -3.81505 0.360945)
(99.7796 -3.55654 0.359841)
(99.9211 -3.3123 0.377736)
(99.9283 -3.13095 0.392323)
(99.8578 -2.96839 0.387736)
(98.8213 -2.70995 0.339948)
(95.1274 -2.51247 0.295837)
(95.1808 -2.58384 0.310752)
(95.2483 -2.61705 0.316579)
(95.3034 -2.63359 0.318752)
(95.3498 -2.64672 0.31993)
(95.3948 -2.65941 0.320845)
(95.4409 -2.6716 0.321761)
(95.4882 -2.68292 0.322806)
(95.5361 -2.6929 0.323971)
(95.5842 -2.70097 0.325127)
(95.6324 -2.70663 0.326106)
(95.6803 -2.70963 0.326658)
(95.728 -2.71006 0.326542)
(95.7755 -2.70827 0.325487)
(95.8229 -2.70486 0.323142)
(95.8705 -2.70062 0.318991)
(95.9183 -2.69658 0.312253)
(95.9659 -2.6944 0.301682)
(96.0238 -2.69733 0.285079)
(99.9989 0.0538201 0.00367346)
(99.9957 0.111598 0.00771904)
(99.9889 0.178704 0.0123904)
(99.9774 0.261602 0.0180431)
(99.9584 0.368878 0.0251297)
(99.9272 0.51359 0.0342141)
(99.8756 0.717065 0.0459569)
(99.7887 1.0169 0.0609311)
(99.6179 1.48506 0.0791752)
(99.3511 1.87972 0.0905898)
(98.6334 2.80595 0.104185)
(95.4985 5.79187 0.138077)
(77.1708 -4.3701 0.231741)
(52.5324 -3.77022 -1.532)
(74.1034 -4.35247 -0.520684)
(78.9676 -3.80254 -0.366971)
(82.3819 -3.54936 -0.232657)
(84.7738 -3.34359 -0.145446)
(86.4045 -3.18474 -0.121251)
(92.2416 -3.52835 -0.302977)
(96.3426 -3.38786 -0.475833)
(96.4838 -3.27452 -0.4847)
(96.6349 -3.19 -0.488772)
(96.7614 -3.12528 -0.491246)
(96.871 -3.07325 -0.492608)
(96.9729 -3.03062 -0.492825)
(97.069 -2.99544 -0.491853)
(97.1587 -2.96618 -0.489544)
(97.2418 -2.94153 -0.485717)
(97.3184 -2.9204 -0.480309)
(97.3891 -2.90194 -0.47346)
(97.4547 -2.88546 -0.46552)
(97.516 -2.87047 -0.457013)
(97.5741 -2.8566 -0.448578)
(97.6296 -2.84358 -0.440935)
(97.6834 -2.83113 -0.434909)
(97.7361 -2.81883 -0.431429)
(97.7878 -2.80588 -0.431644)
(97.8522 -2.79014 -0.436841)
(100.001 0.0517027 0.0028544)
(100.004 0.107354 0.00574857)
(100.011 0.172425 0.00889215)
(100.021 0.253519 0.012366)
(100.036 0.35944 0.0161932)
(100.058 0.503339 0.0202861)
(100.092 0.706023 0.0242293)
(100.154 1.00246 0.0268462)
(100.294 1.45374 0.0253381)
(100.341 1.85894 0.0234461)
(100.612 2.83282 0.013073)
(102.423 5.33762 -0.00989934)
(111.013 3.97337 0.0094167)
(109.026 -6.59279 -0.182766)
(102.736 -6.78083 -0.292643)
(101.063 -4.94101 -0.342508)
(100.62 -3.92774 -0.368135)
(100.464 -3.38207 -0.379331)
(100.396 -3.07301 -0.381192)
(100.342 -2.89729 -0.380202)
(100.251 -2.71767 -0.460761)
(100.281 -2.36308 -0.650735)
(100.271 -2.25783 -0.6595)
(100.264 -2.19436 -0.66332)
(100.259 -2.15594 -0.666074)
(100.253 -2.12937 -0.668447)
(100.247 -2.10979 -0.670106)
(100.242 -2.09554 -0.670946)
(100.237 -2.08554 -0.67104)
(100.232 -2.07895 -0.670475)
(100.227 -2.07516 -0.669372)
(100.221 -2.07379 -0.667896)
(100.216 -2.07444 -0.666266)
(100.211 -2.07674 -0.664718)
(100.207 -2.08022 -0.66359)
(100.203 -2.08431 -0.663276)
(100.2 -2.08832 -0.664271)
(100.198 -2.0913 -0.667148)
(100.2 -2.09182 -0.672501)
(100.21 -2.08752 -0.68049)
(100.003 0.0453398 0.00184934)
(100.013 0.0942356 0.00373783)
(100.032 0.151393 0.00551722)
(100.062 0.222512 0.00697781)
(100.108 0.314812 0.00778829)
(100.175 0.438083 0.00733329)
(100.278 0.606095 0.00442941)
(100.443 0.837834 -0.00313695)
(100.755 1.15706 -0.0195195)
(100.978 1.39283 -0.0308512)
(101.82 1.84099 -0.0700975)
(103.422 1.73522 -0.14274)
(105.187 -0.262547 -0.244667)
(104.729 -2.83074 -0.358455)
(102.948 -3.56572 -0.442757)
(101.735 -3.34808 -0.495003)
(101.109 -2.99736 -0.526966)
(100.774 -2.70299 -0.546539)
(100.581 -2.48445 -0.558959)
(100.452 -2.32384 -0.567314)
(100.36 -2.19435 -0.572847)
(100.265 -1.9053 -0.732533)
(100.234 -1.8656 -0.733826)
(100.215 -1.83495 -0.73393)
(100.205 -1.81135 -0.733531)
(100.201 -1.79139 -0.732668)
(100.2 -1.77365 -0.73125)
(100.202 -1.75803 -0.729319)
(100.204 -1.74455 -0.726985)
(100.207 -1.73313 -0.724357)
(100.21 -1.72361 -0.721549)
(100.212 -1.71581 -0.718691)
(100.214 -1.7095 -0.715939)
(100.216 -1.70439 -0.713453)
(100.217 -1.7001 -0.711452)
(100.218 -1.69614 -0.710188)
(100.218 -1.69201 -0.709969)
(100.22 -1.68706 -0.711149)
(100.225 -1.68077 -0.7141)
(100.238 -1.67329 -0.719072)
(100.004 0.0352851 0.0011743)
(100.02 0.0732757 0.00223954)
(100.049 0.117545 0.0028661)
(100.096 0.172262 0.00267024)
(100.164 0.242155 0.00106615)
(100.263 0.332861 -0.00290312)
(100.408 0.450402 -0.0108145)
(100.624 0.599 -0.0252598)
(100.954 0.774702 -0.0504748)
(101.432 0.856704 -0.0925111)
(102.062 0.760199 -0.157313)
(102.728 0.23943 -0.247721)
(103.081 -0.731566 -0.353807)
(102.836 -1.55518 -0.463337)
(102.203 -1.86481 -0.553135)
(101.581 -1.87427 -0.616813)
(101.138 -1.79287 -0.659341)
(100.85 -1.69286 -0.687579)
(100.655 -1.59797 -0.706379)
(100.518 -1.51363 -0.718383)
(100.422 -1.43934 -0.725157)
(100.358 -1.37096 -0.727628)
(100.314 -1.31482 -0.729124)
(100.284 -1.26778 -0.729979)
(100.264 -1.22889 -0.729819)
(100.251 -1.19693 -0.728715)
(100.242 -1.17058 -0.72697)
(100.237 -1.14891 -0.72486)
(100.234 -1.1313 -0.722604)
(100.233 -1.11726 -0.720388)
(100.233 -1.10633 -0.718378)
(100.232 -1.0981 -0.716718)
(100.232 -1.09218 -0.715538)
(100.232 -1.08815 -0.714936)
(100.231 -1.08555 -0.715024)
(100.231 -1.08389 -0.715913)
(100.231 -1.08265 -0.717731)
(100.232 -1.08131 -0.720626)
(100.235 -1.07954 -0.724741)
(100.241 -1.0774 -0.730054)
(100.005 0.0223711 0.000686487)
(100.025 0.0463859 0.0011367)
(100.061 0.074305 0.000962211)
(100.118 0.108484 -0.000336502)
(100.201 0.151451 -0.00355573)
(100.318 0.205651 -0.00976546)
(100.481 0.272432 -0.020643)
(100.707 0.349324 -0.0386458)
(101.013 0.423538 -0.0671608)
(101.407 0.457042 -0.110243)
(101.865 0.394657 -0.171444)
(102.289 0.162014 -0.25137)
(102.51 -0.253143 -0.343976)
(102.399 -0.677938 -0.436969)
(102.016 -0.920023 -0.51793)
(101.564 -0.981052 -0.57992)
(101.189 -0.95532 -0.624351)
(100.915 -0.904685 -0.655685)
(100.718 -0.852144 -0.677661)
(100.571 -0.804017 -0.692569)
(100.462 -0.762449 -0.701947)
(100.381 -0.729719 -0.707136)
(100.321 -0.705645 -0.70983)
(100.278 -0.688006 -0.71064)
(100.248 -0.675223 -0.709802)
(100.227 -0.666174 -0.707693)
(100.213 -0.659855 -0.704762)
(100.204 -0.655531 -0.701391)
(100.198 -0.652778 -0.697876)
(100.196 -0.651334 -0.694455)
(100.196 -0.650972 -0.691321)
(100.196 -0.651495 -0.688628)
(100.198 -0.652693 -0.686488)
(100.199 -0.654358 -0.684986)
(100.202 -0.656206 -0.684232)
(100.204 -0.658015 -0.684258)
(100.207 -0.659529 -0.685116)
(100.211 -0.660525 -0.686901)
(100.218 -0.660856 -0.68975)
(100.231 -0.660501 -0.693863)
(100.006 0.00766001 0.000442103)
(100.027 0.0158687 0.000631553)
(100.067 0.0253765 2.12821e-05)
(100.129 0.0369455 -0.00176746)
(100.219 0.0513597 -0.00581137)
(100.343 0.0692783 -0.0130523)
(100.513 0.0906842 -0.0251787)
(100.739 0.114122 -0.0444867)
(101.027 0.134467 -0.0740332)
(101.373 0.139623 -0.116587)
(101.742 0.110042 -0.174295)
(102.061 0.025377 -0.246673)
(102.227 -0.111466 -0.328834)
(102.165 -0.254099 -0.411747)
(101.896 -0.345099 -0.485948)
(101.539 -0.37453 -0.545953)
(101.205 -0.370238 -0.591012)
(100.941 -0.35599 -0.623686)
(100.741 -0.340776 -0.647081)
(100.589 -0.326693 -0.663303)
(100.473 -0.314334 -0.673875)
(100.386 -0.304013 -0.680053)
(100.322 -0.295123 -0.683036)
(100.276 -0.287011 -0.683679)
(100.244 -0.279281 -0.682714)
(100.222 -0.271792 -0.680583)
(100.207 -0.264487 -0.677678)
(100.197 -0.257386 -0.674375)
(100.192 -0.250577 -0.671001)
(100.19 -0.244166 -0.667821)
(100.189 -0.238238 -0.665045)
(100.19 -0.232847 -0.662825)
(100.192 -0.228019 -0.661257)
(100.194 -0.223743 -0.660358)
(100.196 -0.219949 -0.660413)
(100.199 -0.216592 -0.661283)
(100.202 -0.213608 -0.662941)
(100.205 -0.210942 -0.665445)
(100.211 -0.208654 -0.668886)
(100.219 -0.207222 -0.673412)
(99.9938 0.00567603 0.0113987)
(99.9725 0.0115497 0.0237503)
(99.9331 0.0177409 0.0383669)
(99.8747 0.0242414 0.0567427)
(99.7959 0.0307785 0.0805392)
(99.695 0.0366144 0.111743)
(99.5712 0.0401904 0.152501)
(99.4271 0.0387259 0.205201)
(99.271 0.0278174 0.27199)
(99.1209 0.00155236 0.353811)
(99.0071 -0.0456331 0.449412)
(98.9671 -0.11187 0.554152)
(99.0254 -0.180277 0.659924)
(99.1746 -0.232493 0.758175)
(99.3756 -0.258734 0.842388)
(99.5839 -0.267439 0.911449)
(99.774 -0.266416 0.967008)
(99.9371 -0.26032 1.01131)
(100.073 -0.252276 1.04605)
(100.183 -0.244496 1.07258)
(100.272 -0.23763 1.09218)
(100.342 -0.231453 1.10642)
(100.398 -0.22589 1.11692)
(100.441 -0.221395 1.12466)
(100.475 -0.217988 1.13016)
(100.502 -0.215353 1.13378)
(100.523 -0.213285 1.13585)
(100.538 -0.211679 1.13684)
(100.549 -0.210431 1.13723)
(100.556 -0.209456 1.13735)
(100.561 -0.208712 1.13747)
(100.563 -0.208202 1.13778)
(100.563 -0.207933 1.13847)
(100.562 -0.207922 1.13957)
(100.561 -0.208179 1.14103)
(100.56 -0.208736 1.14271)
(100.56 -0.209614 1.14436)
(100.561 -0.210815 1.14571)
(100.565 -0.212355 1.14636)
(100.576 -0.214329 1.14575)
(99.9939 0.0168772 0.0111484)
(99.9732 0.0343864 0.0232622)
(99.9346 0.0529829 0.0376709)
(99.8768 0.0727859 0.055862)
(99.7978 0.0931838 0.0795552)
(99.6945 0.112244 0.110888)
(99.5643 0.125619 0.152342)
(99.4067 0.125109 0.206783)
(99.2271 0.0970247 0.277071)
(99.0423 0.0218792 0.365166)