/*--------------------------------*- C++ -*----------------------------------*\
| =========                 |                                                 |
| \\      /  F ield         | OpenFOAM: The Open Source CFD Toolbox           |
|  \\    /   O peration     | Version:  2306                                  |
|   \\  /    A nd           | Website:  www.openfoam.com                      |
|    \\/     M anipulation  |                                                 |
\*---------------------------------------------------------------------------*/
FoamFile
{
    version     2.0;
    format      ascii;
    arch        "LSB;label=32;scalar=64";
    class       volVectorField;
    location    "1.35";
    object      Force;
}
// * * * * * * * * * * * * * * * * * * * * * * * * * * * * * * * * * * * * * //

dimensions      [1 1 -2 0 0 0 0];

internalField   uniform (0 0 0);

boundaryField
{
    walls
    {
        type            calculated;
        value           uniform (0 0 0);
    }
    inlet
    {
        type            calculated;
        value           uniform (0 0 0);
    }
    outlet
    {
        type            calculated;
        value           uniform (0 0 0);
    }
    NASA
    {
        type            calculated;
        value           nonuniform List<vector> 
14179
(
(-0.0143169 -0.131696 2.31851e-06)
(-0.0127655 -0.105559 1.35921e-06)
(-0.0658181 -0.532535 0.000215188)
(-0.100835 -0.810969 0.000601296)
(-0.0646959 -0.523903 0.000114374)
(-0.109511 -0.880636 0.000701221)
(0.203345 0.883199 -0.000119644)
(0.0910636 0.456936 -2.90457e-05)
(0.665636 3.26479 0.00457478)
(0.0951238 0.477332 -2.97731e-05)
(0.000503308 -0.00133906 -3.22217e-07)
(-0.0177949 -0.145505 0.000147163)
(0.130279 0.650565 -0.000441145)
(-0.0354681 -0.322575 0.000445965)
(0.0617436 0.308167 -0.000192284)
(1.37533 0.927722 0.0028036)
(1.39393 0.923661 -0.000193556)
(0.0232742 0.130717 -1.85947e-05)
(0.172582 1.0238 -8.15179e-05)
(1.28722 0.853198 -6.40149e-05)
(-0.0168717 -0.236119 -1.53112e-05)
(-0.0209714 -0.195053 -0.000140421)
(-0.0192961 -0.267975 -0.000256118)
(-0.00845058 -0.0615879 8.31901e-07)
(-0.0129326 -0.107005 8.24518e-06)
(-0.00912921 -0.0665341 9.01151e-06)
(-0.0129567 -0.106719 0.000173887)
(-0.015101 -0.108236 0.000182664)
(-0.0133381 -0.121823 0.000200597)
(-0.0156685 -0.215027 0.00338217)
(0.04701 0.205291 3.51437e-05)
(0.0530152 0.249972 9.2579e-06)
(0.0569972 0.268753 -5.6688e-05)
(0.0463752 0.202018 -1.5895e-05)
(0.0578978 0.212309 7.18307e-06)
(0.061749 0.226389 3.65834e-05)
(0.0287618 0.104321 4.12153e-06)
(0.0315288 0.114333 1.95896e-05)
(-0.00177544 -0.0086077 0.000129581)
(-0.0130784 -0.0636386 0.00056427)
(0.168631 0.615801 -0.000149331)
(0.0986266 0.355546 0.00025861)
(0.098122 0.492553 -6.03308e-06)
(-0.00578306 -0.0407006 2.08022e-06)
(-0.00526977 -0.0370877 -6.06246e-06)
(0.157118 0.789294 -1.01376e-05)
(-0.00974604 -0.0674341 0.000148132)
(0.0968493 0.483433 8.78555e-05)
(0.0900044 0.449663 -2.90286e-05)
(0.107937 0.440986 -0.000313587)
(0.0845223 0.314197 -1.46447e-05)
(0.0841651 0.312852 -2.23144e-05)
(-0.0645962 1.57815 -8.99777e-05)
(1.38733 0.922308 -0.000713642)
(-0.0501591 1.22626 6.188e-05)
(-0.00282701 1.41783 -6.31067e-05)
(0.0778627 1.17711 5.09728e-05)
(0.0670178 1.01196 -0.000127027)
(-0.00288264 1.32146 -3.05309e-05)
(0.0898634 0.353025 -9.49931e-06)
(0.178663 1.05956 -2.96514e-05)
(0.00810255 0.0295043 7.65112e-05)
(-0.0228673 0.567878 2.47028e-05)
(0.931244 0.635367 0.0786933)
(-0.000732862 0.533831 -0.000271358)
(0.0270711 0.411386 -8.59064e-05)
(0.127386 0.745497 0.00802791)
(-0.014451 -0.144617 4.43774e-06)
(-0.0142588 -0.131243 3.34316e-06)
(-0.0992247 -0.798129 0.000589566)
(-0.011233 -0.0891175 1.80171e-06)
(-0.0127418 -0.105371 2.54304e-06)
(1.33158 0.881575 -0.000718124)
(1.28471 0.850813 -0.000477694)
(0.34544 2.04781 -0.00188245)
(0.260195 1.53705 -0.00110776)
(-0.110808 -0.89221 -0.000776757)
(-0.0559873 -0.348469 0.000308701)
(-0.0550698 -0.344893 0.000289175)
(-0.0419064 -0.245898 0.000241087)
(0.156254 0.674199 -0.00056869)
(0.175065 0.756841 -0.000614541)
(0.761654 1.30768 -5.82651e-05)
(0.762328 1.30684 -0.00033521)
(0.0911925 0.457599 -9.44001e-06)
(0.0850621 0.408488 -1.59716e-05)
(-7.2944e-05 -0.00193366 -1.15906e-06)
(0.00166655 0.00864283 6.50439e-09)
(0.00170424 0.00885942 -1.74778e-06)
(-6.6214e-05 -0.00188521 1.44307e-07)
(0.096289 0.483295 7.70173e-06)
(0.0896775 0.46235 -1.67402e-05)
(-0.0200356 -0.16375 0.000161407)
(-0.0134289 -0.0961859 0.00011155)
(-0.0202317 -0.144481 0.000141739)
(-0.0122465 -0.0844182 0.000105842)
(-0.017981 -0.123318 7.89525e-05)
(0.0854288 0.426233 -0.000380951)
(-0.0200381 -0.182295 0.000163093)
(-0.0246525 -0.339106 0.000610507)
(-0.0208599 -0.293053 -0.00032033)
(0.0801211 0.400116 -0.000328719)
(1.37297 0.92204 -0.00270123)
(0.104423 0.61546 -2.38114e-05)
(0.113256 0.633169 -9.84417e-06)
(0.113531 0.634562 -2.1397e-05)
(0.193331 1.34568 -4.36432e-05)
(0.119505 0.708711 -1.64432e-05)
(0.17386 1.03119 -2.32243e-05)
(0.0176202 0.0166287 1.91039e-05)
(0.368897 -0.135939 0.00370263)
(0.382838 -0.151779 0.00180739)
(0.0153109 0.0147147 -4.01387e-05)
(-0.0062116 -0.0267508 9.86715e-05)
(0.0223736 0.0824898 -1.01633e-05)
(0.00303961 0.0106148 6.48363e-05)
(0.0226909 0.0913474 8.30355e-05)
(-0.00907883 -0.0405553 5.48335e-05)
(-0.00134279 -0.00802947 8.75353e-05)
(0.00475137 0.0198987 3.1871e-05)
(-0.0178738 -0.0864656 7.95081e-05)
(-0.00105942 0.730502 -0.000457267)
(0.0407022 0.607851 -0.000430958)
(-0.00154559 0.978368 -0.000656657)
(0.0318011 0.481458 -0.000664509)
(-0.0346903 0.867409 -0.000753438)
(1.11192 0.747963 -0.000402117)
(-0.0470024 1.16296 -0.000764313)
(0.109629 0.648688 -0.00147266)
(0.156036 0.610983 -0.000715551)
(0.117367 0.458969 -0.000288303)
(0.108097 0.394415 -0.000223704)
(0.152891 0.558542 -0.000339818)
(0.0628791 0.22686 -0.000125982)
(0.0859349 0.310564 -0.00025432)
(-0.013036 -0.146899 -3.72396e-06)
(-0.0167555 -0.234185 2.74727e-06)
(-0.0102839 -0.0792547 1.75223e-06)
(-0.00830161 -0.0605061 6.82683e-07)
(0.000311384 0.000254091 0.535728)
(-0.0129777 -0.102116 0.000170573)
(0.000284855 0.000244816 0.509397)
(-0.0144241 -0.109908 0.000190585)
(0.000572306 0.000424952 0.57976)
(-0.0130673 -0.130455 0.000282509)
(0.000797102 0.000877874 0.580775)
(-0.0121765 -0.140192 0.00109309)
(0.0528035 0.248966 -1.54917e-05)
(0.0393404 0.178922 -3.98663e-06)
(0.0396561 0.180377 -1.11101e-05)
(0.0465995 0.202951 -8.15195e-06)
(0.0458856 0.202123 -6.29555e-06)
(0.0461254 0.203186 -1.11803e-05)
(0.0578047 0.211918 1.75648e-05)
(0.0242285 0.120513 -7.87682e-06)
(0.0216917 0.110067 -6.8794e-06)
(0.0291979 0.105886 1.22162e-05)
(0.0246901 0.0868429 3.21535e-06)
(-0.00625396 -0.0286647 0.000196747)
(-0.00535785 -0.0255491 0.000227885)
(0.000251207 0.000172361 0.322244)
(0.000257429 0.0001504 0.315482)
(0.000250514 0.000145131 0.311678)
(0.000283266 0.000167439 0.35825)
(0.0931056 0.317242 0.000471715)
(0.15889 0.555547 0.00413013)
(-3.82909e-05 0.00024873 0.337488)
(0.000188821 -0.00013392 0.305173)
(0.000120337 7.19366e-05 0.108441)
(0.0813188 0.285465 0.000230784)
(0.28468 0.661321 -1.41669e-06)
(0.167696 0.591197 6.54496e-05)
(0.166003 0.585262 -1.80097e-05)
(0.0772433 0.360546 -5.77698e-06)
(0.0777628 0.363133 -3.70859e-06)
(0.132609 0.633127 -1.85186e-05)
(0.0765575 0.340823 -3.53636e-06)
(0.0791479 0.359044 -9.92015e-07)
(0.0807521 0.366369 -3.14826e-06)
(0.0761061 0.338818 2.66545e-06)
(-0.00443976 -0.0314048 -7.34298e-07)
(-0.00571036 -0.0401934 -6.76694e-07)
(0.145934 0.772757 -6.14042e-06)
(0.271403 0.468047 0.0116646)
(0.000571037 0.00224232 0.871141)
(0.000350705 0.000956348 0.415696)
(0.0495989 0.144276 0.000190493)
(-0.0118061 -0.0736557 0.00021089)
(-0.0118619 -0.0748781 0.000354903)
(0.000647583 0.000909036 0.681332)
(0.000193246 -0.000110374 0.311351)
(0.0959836 0.492635 0.00106819)
(0.000332361 -0.000220085 0.375048)
(0.139658 0.733989 0.00553599)
(0.000383284 0.000298694 0.34834)
(0.000240464 0.00015499 0.330588)
(-0.000514909 -0.000199398 0.353827)
(6.8919e-05 0.000160496 0.112615)
(0.0802329 0.383326 -5.32002e-05)
(0.102795 0.47754 0.000966357)
(0.000348893 -5.24862e-05 0.206323)
(9.37969e-05 0.000266753 0.107958)
(0.168784 0.709296 0.00206415)
(0.0845433 0.314264 -1.30496e-05)
(0.0805444 0.308328 -1.90825e-05)
(0.0961405 0.391923 -2.25935e-05)
(0.0674456 0.271645 -5.90377e-06)
(-0.799976 2.55758 -0.0196379)
(-0.054479 1.33322 -2.04999e-05)
(-0.150501 1.40695 0.000619785)
(0.0764056 1.15344 -7.76187e-05)
(0.0609834 1.30376 -5.3786e-05)
(-0.00287916 1.3152 -6.73889e-05)
(0.0355021 1.34017 -4.49927e-05)
(0.104291 1.14456 -7.59182e-06)
(0.147677 1.90573 -6.25061e-05)
(0.144961 1.87096 -4.8292e-05)
(0.104019 1.14152 -4.80496e-05)
(0.108723 1.11049 -1.02712e-05)
(0.105337 0.97967 2.7081e-05)
(0.110182 1.02533 -2.82914e-05)
(0.104245 1.06397 2.07232e-05)
(0.0649887 0.269226 1.03007e-05)
(0.0589598 0.233908 8.34355e-06)
(0.0905611 0.355755 1.94524e-05)
(0.129185 0.874917 -6.0519e-05)
(0.134442 0.846626 -2.24956e-05)
(-0.000638971 -0.000623367 0.571192)
(0.000520367 0.00153161 0.901208)
(0.00156717 0.00536769 0.00013304)
(-2.4543e-06 0.00208169 0.745489)
(0.00273967 0.00959928 0.000132338)
(0.000200522 0.00960789 0.274487)
(-0.0608983 0.584553 -0.00054448)
(0.00711194 -0.00450226 1.75364)
(0.000213477 0.000200799 0.30448)
(0.0141896 0.518452 -0.000317234)
(0.000608544 -0.000178361 0.245523)
(0.0233087 0.487665 -0.000160508)
(0.0614913 0.528995 -0.000310499)
(0.0612197 0.519126 -0.000274776)
(0.000259363 0.000171932 0.24479)
(0.000282721 0.00018667 0.269271)
(0.0576497 0.531823 -0.000213019)
(0.0523971 0.528536 7.26102e-05)
(0.0474002 0.51884 0.00139289)
(1.83719e-05 -0.000949546 0.224216)
(-0.0192846 -0.10586 0.00106975)
(-8.51444e-05 0.000230534 0.504992)
(0.0915081 0.508818 0.000114927)
(0.000247514 0.000144119 0.321549)
(0.000250941 0.000146098 0.322966)
(0.478229 -0.190522 -0.00396556)
(0.226402 0.214069 0.00245471)
(0.000169486 2.35136e-05 0.0803804)
(-0.0529923 -0.521395 0.000321536)
(-0.0696544 -0.562835 0.000352799)
(-0.0568088 -0.558173 0.000388239)
(-0.0701377 -0.566676 0.000359888)
(-0.0771524 -0.622408 0.000439602)
(-0.0596625 -0.58564 0.00041485)
(-0.0840589 -0.677289 0.000487514)
(0.177621 0.768748 -0.000634286)
(0.446377 2.18576 -0.00163227)
(0.181063 0.784081 -0.000642701)
(0.426051 2.08565 -0.00156751)
(-0.0648055 -0.524669 0.000129462)
(-0.0419113 -0.261418 0.000211973)
(-0.104974 -0.843954 0.000633831)
(-0.0475224 -0.295973 0.000242439)
(1.39435 0.923899 -0.000338413)
(1.39516 0.924455 -0.000180828)
(0.212798 0.924079 -0.000142188)
(0.667502 3.27565 -0.000638341)
(0.597287 2.93068 -0.000388018)
(0.199427 0.865898 -0.000161226)
(0.480247 2.84739 -0.00036027)
(0.497218 2.94787 -0.000745535)
(8.70453e-06 -0.00327001 1.9621e-06)
(0.000478707 -0.000983101 2.87847e-07)
(0.0232071 0.131428 -3.08345e-05)
(0.0236479 0.133418 -2.18275e-05)
(0.0510775 0.221744 -4.51449e-05)
(0.0375026 0.170407 -3.35953e-05)
(0.061113 0.266055 -9.24223e-05)
(0.0293547 0.132478 7.9998e-06)
(-0.108648 -0.874296 0.000709266)
(-0.0690538 -0.501815 0.000402911)
(0.0189194 0.0892006 5.77108e-05)
(-0.0101169 -0.0563428 0.000104819)
(0.063095 0.230071 -0.000198749)
(0.0710468 0.259032 -0.000200299)
(0.0342614 0.123499 -0.000108395)
(0.0396717 0.142994 -0.000110873)
(0.276889 1.25302 -0.000193097)
(0.17043 0.739572 2.1615e-05)
(0.313317 1.48187 -0.000272059)
(0.144227 0.724025 -3.57507e-05)
(-0.0185168 -0.155939 0.000158316)
(-0.0419057 -0.310914 0.000279133)
(-0.00682276 -0.049887 -1.65153e-05)
(0.00132082 0.00300835 -2.12127e-06)
(-0.017561 -0.120621 1.57437e-05)
(-0.0233083 -0.163464 6.28436e-05)
(0.0969534 0.396421 0.00016878)
(0.0838699 0.311764 -4.66027e-05)
(0.0840364 0.31238 -3.06222e-05)
(0.108418 0.44478 -0.000644238)
(0.165618 0.727453 -0.000133261)
(0.142185 0.655229 3.38706e-05)
(0.172877 0.759883 -0.000105971)
(0.182127 0.849366 3.28677e-05)
(-0.00288709 1.425 -5.8014e-05)
(0.0571475 0.861401 -0.000172668)
(-0.00290525 1.40266 -0.000206868)
(0.0635228 0.95717 -0.000104119)
(-0.0663067 1.62109 -7.75644e-05)
(1.39126 0.923219 -0.000366907)
(-0.0670306 1.63976 -0.000236217)
(0.421057 3.61015 -0.0011827)
(0.094015 0.369437 1.74398e-05)
(0.0764117 0.300312 -2.74982e-05)
(0.0756516 0.277405 3.09317e-05)
(0.0658094 0.241278 4.21057e-05)
(0.0574096 0.300958 -7.50116e-05)
(0.18486 0.912506 -0.00100748)
(0.0224714 0.125348 -5.72381e-05)
(0.0479577 0.257387 -3.51291e-05)
(0.904564 5.66064 0.00352974)
(0.415406 2.77539 0.000857312)
(0.0418192 0.151686 2.31405e-05)
(0.0333467 0.120932 2.43623e-05)
(1.26893 0.84302 0.000986147)
(0.0900485 0.623437 -0.000497854)
(0.251966 0.236344 -4.72404e-05)
(0.499038 -0.206923 -4.29857e-05)
(0.238785 0.224679 -0.000125275)
(0.517562 -0.214971 -0.000310392)
(0.0596076 0.218544 2.5424e-05)
(0.0271352 0.095413 1.83516e-05)
(0.0304343 0.110375 1.72861e-05)
(0.284823 0.661642 -1.49765e-05)
(0.275048 0.807354 -4.52662e-05)
(0.000467727 0.00111429 0.733727)
(0.000165038 0.000310118 0.363913)
(0.000328059 -0.000223257 0.384273)
(-0.19604 1.81768 -0.000139129)
(-0.0609223 1.48971 -1.20308e-05)
(1.38268 0.922588 -0.00142795)
(0.0248317 0.02346 2.82428e-05)
(0.369287 -0.151767 0.000142145)
(0.379111 -0.154125 0.000614056)
(0.0278127 0.0262493 2.40801e-05)
(0.000243645 -8.72887e-05 0.549048)
(0.000206452 -6.44138e-05 0.381965)
(0.000211974 0.000130584 0.342855)
(0.000390842 0.000297472 0.366651)
(-0.0906469 -0.729764 0.000530039)
(1.36839 0.906014 -0.000759337)
(1.35556 0.897502 -0.000742535)
(1.329 0.87988 -0.000717795)
(1.35483 0.89701 -0.000741112)
(0.396141 1.93812 -0.00146357)
(0.174452 0.754398 -0.000619847)
(0.17632 0.762979 -0.000629266)
(0.418378 2.0479 -0.00154507)
(0.269611 1.59298 -0.00117737)
(0.288241 1.70337 -0.00122495)
(-0.0238136 -0.140834 0.000128961)
(-0.0304745 -0.179367 0.000162666)
(-0.0548457 -0.341219 0.000291615)
(-0.0495222 -0.30829 0.000255132)
(-0.040029 -0.234802 0.000220647)
(-0.0329819 -0.193874 0.000176898)
(0.25315 2.15356 -0.00150059)
(0.24028 2.04351 -0.00154561)
(0.0255951 0.0944739 -2.25173e-05)
(0.0241393 0.0975173 -4.73353e-05)
(0.0357996 0.145549 0.000153314)
(0.0336328 0.124374 -5.52263e-05)
(0.00209156 0.00826763 6.62332e-05)
(0.0283256 0.121262 8.10924e-05)
(0.0374182 0.161628 1.0684e-05)
(0.0226229 0.100745 7.47875e-05)
(0.041585 0.15396 -8.45888e-05)
(0.0458795 0.187063 0.000155375)
(0.0359102 0.132848 -6.41315e-05)
(0.0425474 0.635129 -0.000437066)
(-0.001629 1.02133 -0.000684972)
(-0.00181861 1.12541 -0.000752548)
(0.0468366 0.699403 -0.000485553)
(-0.054364 1.34392 -0.000890695)
(1.31879 0.873089 -0.000702351)
(-0.0568349 1.40466 -0.000934177)
(-0.0488237 1.20773 -0.000797582)
(-0.0531695 1.31457 -0.000870402)
(1.31609 0.871294 -0.00070187)
(-0.00187204 1.15362 -0.000771751)
(0.0511392 0.764764 -0.00052416)
(-0.00197798 1.20991 -0.000811536)
(0.0481422 0.719389 -0.000471095)
(0.226228 1.33591 -0.00095757)
(0.410209 2.55406 -0.00386568)
(0.236869 1.57741 -0.00115787)
(0.24649 1.45568 -0.00111291)
(0.404511 2.52263 -0.00180233)
(0.376876 2.34926 -0.00172846)
(0.195063 1.29737 -0.00175082)
(-0.0808208 -0.593276 0.000100328)
(-0.101753 -0.819345 0.000634321)
(-0.0661644 -0.439281 0.000366838)
(-0.0561725 -0.350091 0.000332304)
(-0.0794659 -0.533171 0.000359118)
(-0.0524846 -0.32801 0.000327981)
(-0.0231797 -0.12914 0.000159446)
(-0.0437448 -0.25709 0.000279765)
(0.00574479 0.0219793 0.000234939)
(-0.0463658 -0.273832 0.00026745)
(0.230396 1.03533 -0.000852509)
(0.178817 0.772598 -0.000603485)
(0.236955 1.11658 -0.000862538)
(0.176636 0.76343 -0.000607537)
(0.224115 1.01041 -0.000797188)
(0.240814 1.13347 -0.00119825)
(0.366778 1.79246 -0.00146303)
(0.105235 0.411444 -0.000272086)
(0.088879 0.347416 -0.000261849)
(0.094953 0.346356 -0.000214625)
(0.0747669 0.272602 -0.000200744)
(0.086277 0.337276 -0.000267869)
(0.0802556 0.313803 -0.000265298)
(0.0551253 0.198821 -0.000120022)
(0.0422102 0.152148 -0.000111753)
(0.125585 0.291096 -0.000140172)
(0.106801 0.247446 -8.42143e-05)
(-0.0206324 -0.156378 0.000162761)
(-0.0180651 -0.129225 0.000143375)
(0.0810592 0.414324 -0.000610009)
(0.0855937 0.427248 -0.000309546)
(0.123882 0.653955 -0.00111943)
(-0.0192223 -0.189987 0.000103165)
(-0.0198264 -0.180773 0.000175039)
(-0.0171446 -0.188663 -0.000140675)
(-0.0211762 -0.293783 0.000202462)
(0.0769504 0.36833 -0.000417968)
(0.0814908 0.406811 -0.000282972)
(-0.00380293 -0.0161414 6.65658e-05)
(0.00640844 0.0247931 9.66385e-05)
(-0.000206984 -0.00158709 7.20583e-05)
(0.0133424 0.0488981 3.85229e-05)
(0.0176278 0.646816 -0.00042367)
(-0.00127413 0.843695 -0.000587802)
(0.0268757 0.56676 -0.00044338)
(0.0360492 0.539553 -0.000461546)
(-0.105479 1.00331 -0.00212193)
(-0.0410008 1.01723 -0.000740627)
(1.2326 0.823165 0.0024886)
(-0.462779 1.50623 -0.000739665)
(-0.0448668 1.11105 -0.00075189)
(-0.140987 1.31252 -0.000825438)
(-0.0116788 -0.0610578 0.000108111)
(-0.00845036 -0.0435296 8.83479e-05)
(-0.0102341 -0.0524601 0.000101222)
(-0.00985702 -0.051743 9.62508e-05)
(-0.024736 -0.135802 3.818e-05)
(0.000638128 0.000538536 0.389274)
(0.0583002 0.392245 -0.000299673)
(0.0920751 0.637574 -0.000604521)
(0.0603869 0.406016 -0.000375496)
(0.126271 0.460881 -0.000244755)
(0.153312 0.559856 -0.000312677)
(0.0727865 0.262695 -0.000135146)
(0.0615615 0.215368 -0.000118183)
(0.0810893 0.284227 -0.000337672)
(0.0888956 0.321035 -0.000189129)
(0.445344 -0.186107 -0.00279044)
(0.215505 0.197904 0.000813703)
(0.262644 0.244297 0.000149005)
(0.520221 -0.217034 -0.00113472)
(0.222519 0.964792 -0.00075356)
(0.554954 2.7203 -0.00199777)
(0.225043 0.976011 -0.000703291)
(0.546949 2.68054 -0.00200886)
(-0.0653454 -0.528841 0.000180483)
(-0.000819349 -0.00832895 5.31634e-06)
(-0.000467529 -0.00616073 3.83488e-06)
(0.233706 1.01462 -0.000326982)
(0.623553 3.05908 -0.00126063)
(0.22654 0.983463 -0.000382108)
(-0.0612322 -0.445166 0.000334565)
(0.178123 0.783231 -0.000185075)
(0.145005 0.669231 -0.000174704)
(0.178449 0.784678 -0.000211186)
(0.14483 0.668377 -0.000157501)
(0.0732517 0.268599 -6.28054e-05)
(0.0712722 0.261254 -4.02779e-05)
(-0.0325178 -0.238718 5.43298e-05)
(0.164339 0.813457 -0.000207368)
(0.0648033 0.34085 -8.47324e-05)
(0.0373186 0.13534 -3.15005e-05)
(0.0359174 0.130209 -2.36101e-05)
(1.39368 0.923615 -0.000196565)
(0.0290777 0.0273324 1.14059e-05)
(0.330506 -0.137141 -2.99853e-06)
(0.022973 0.0215698 4.49287e-06)
(0.339719 -0.140904 -3.63211e-06)
(-0.0215797 -0.136215 0.000108535)
(-0.0239101 -0.150567 0.000120171)
(-0.0398842 -0.248936 0.00020142)
(-0.0952763 -0.766657 0.000561382)
(-0.0350153 -0.218954 0.000175969)
(0.182964 0.79248 -0.000649776)
(0.194428 0.842868 -0.000678183)
(0.103744 0.454067 -0.000272767)
(0.0778534 0.357392 -0.000213118)
(0.107232 0.469446 -0.000286706)
(0.0745557 0.342121 -0.000198724)
(0.04451 0.202977 -6.95035e-05)
(0.0696911 0.303915 -0.000129362)
(0.0765526 0.334182 -0.000159878)
(0.0503565 0.230096 -9.78466e-05)
(0.0575528 0.210545 -0.000213749)
(0.0559714 0.204623 -0.000206756)
(0.0613332 0.223674 -0.000198559)
(0.057565 0.210029 -0.000198119)
(0.0146454 0.0749582 -2.37695e-05)
(0.0694531 0.34081 -0.000186202)
(-0.0685494 -0.498012 0.00039298)
(0.0265189 0.127242 1.19858e-05)
(-0.00633144 -0.0361312 7.94135e-05)
(0.033614 0.16264 -2.59615e-05)
(0.0312341 0.113005 -0.000120229)
(0.0298995 0.108093 -0.000114705)
(0.0330535 0.119158 -0.000108044)
(0.0305219 0.110084 -0.000107507)
(1.33063 0.880936 -0.000714581)
(1.2988 0.859877 -0.000618823)
(0.129898 0.122364 -0.000103276)
(0.357892 -0.148598 7.29879e-05)
(0.368942 -0.153186 7.69323e-05)
(0.117714 0.110876 -9.73707e-05)
(0.477744 -0.198119 4.7429e-05)
(0.222362 0.20943 -0.000142512)
(0.207996 0.195966 -0.000140229)
(0.457623 -0.189882 6.05132e-05)
(7.77669e-05 -0.0132072 6.142e-06)
(0.000107437 -0.0109827 6.70965e-06)
(-0.0519927 -0.511846 0.000277094)
(-5.54832e-05 -0.0230214 1.56782e-05)
(-4.38016e-05 -0.0222077 1.27203e-05)
(-0.0676372 -0.54687 0.000301492)
(-0.05508 -0.541502 0.000364069)
(-0.000302412 -0.0411004 3.12665e-05)
(-0.000166316 -0.0311269 2.28383e-05)
(-0.0731357 -0.590482 0.00040066)
(-0.073705 -0.595011 0.000406141)
(-0.000104869 -0.0263548 2.30763e-05)
(-0.0587024 -0.57642 0.000406859)
(-0.000248487 -0.0370015 2.94681e-05)
(-0.0813168 -0.655505 0.000469832)
(1.383 0.915766 -0.000809436)
(1.38157 0.914809 -0.000798441)
(1.37967 0.913536 -0.000786532)
(1.38371 0.916224 -0.000797913)
(0.206359 0.894888 -0.000706711)
(0.519004 2.54356 -0.00189908)
(0.538609 2.6397 -0.00197165)
(0.187404 0.812669 -0.000645697)
(0.178422 0.77235 -0.000635294)
(0.235331 1.06197 -0.000838829)
(0.266129 1.25545 -0.000956869)
(0.439948 2.15409 -0.00161062)
(0.179852 0.778687 -0.00063892)
(0.242462 1.09457 -0.000858405)
(0.255692 1.20584 -0.000925551)
(0.432537 2.1176 -0.00159374)
(1.38568 0.918059 -0.000570667)
(1.38852 0.91999 -0.000482357)
(1.39283 0.922883 -0.000358248)
(1.38986 0.920887 -0.000467946)
(0.486188 2.8824 -0.000847676)
(0.459036 2.72096 -0.000994199)
(-8.80077e-05 -0.00383359 2.20232e-06)
(-0.0651715 -0.527481 0.000167569)
(-0.000331792 -0.00532368 3.35496e-06)
(0.0224447 0.127017 -5.25816e-05)
(0.0227862 0.129009 -4.56188e-05)
(0.0231208 0.130955 -3.4129e-05)
(0.0229269 0.12983 -4.30009e-05)
(0.202833 0.880651 -0.00016949)
(0.234753 1.01914 -0.000296323)
(0.676224 3.31811 -0.00107471)
(-0.0553204 -0.36759 0.000284291)
(-0.0436756 -0.272284 0.000221148)
(-0.0646942 -0.470115 0.000357969)
(-0.0456754 -0.284598 0.000232143)
(-0.059915 -0.397817 0.000311945)
(0.414135 3.5441 -0.00088808)
(0.428654 3.6677 -0.00067616)
(0.0838295 0.311609 -5.33028e-05)
(0.108498 0.445132 0.000495382)
(0.10861 0.445598 -0.000668974)
(0.0837483 0.311303 -6.92466e-05)
(0.141287 0.651393 -0.000150614)
(0.176634 0.77656 -0.000133964)
(0.177697 0.78132 -0.000162078)
(0.144291 0.665741 -0.000140408)
(0.108596 0.445535 0.000464772)
(0.0836647 0.310986 -8.95819e-05)
(0.108584 0.445472 -0.0006983)
(0.0837122 0.311168 -7.50754e-05)
(0.0558088 0.842436 -0.000149898)
(-0.00287577 1.38727 -0.000232152)
(-0.00277366 1.33696 -0.00030633)
(0.0544175 0.821531 -0.000177995)
(-0.0640937 1.56782 -0.000379499)
(1.39507 0.92439 -0.000280487)
(-0.0592529 1.44954 -0.000424326)
(-0.0667029 1.6317 -0.000267627)
(-0.0650418 1.59099 -0.000353412)
(1.39549 0.924666 -0.000252317)
(-0.00271875 1.30992 -0.000327195)
(0.0599617 0.906105 -0.000238158)
(-0.00238257 1.14359 -0.000347502)
(0.0556883 0.84117 -0.000188044)
(0.289565 1.31043 -0.000171011)
(0.211861 0.919885 -0.000155503)
(0.646638 3.1732 -0.000475371)
(0.359685 1.70101 -0.000319212)
(0.320416 1.5154 -0.00015654)
(0.62106 3.04747 -0.000468752)
(0.20694 0.898538 -0.000168982)
(0.297113 1.34442 -0.000247511)
(0.0681815 0.267978 -3.67309e-05)
(0.063429 0.249087 -6.94352e-05)
(0.0697091 0.255669 -3.82494e-06)
(0.0704996 0.258319 -4.43248e-05)
(0.0613614 0.24101 -6.8417e-05)
(0.812341 5.08227 -0.00105108)
(0.516671 3.0631 -0.00049305)
(0.843542 5.27896 -0.000875371)
(0.481743 3.22162 -0.000732175)
(0.508159 3.39764 -0.000566159)
(0.521019 3.0891 -0.000554818)
(-0.0306438 -0.225677 3.78768e-05)
(-0.0189348 -0.128434 3.06475e-05)
(0.000131208 -0.00259666 1.43473e-06)
(-0.0181473 -0.123867 2.21629e-05)
(0.00018402 -0.00245358 1.38165e-06)
(0.0640399 0.336312 -5.27318e-05)
(0.161877 0.800436 -0.000127367)
(0.164259 0.812753 -0.000162415)
(0.0491743 0.265029 -6.43024e-05)
(0.0232943 0.131862 -2.77306e-05)
(0.0491651 0.26447 -4.38433e-05)
(0.0233354 0.131934 -2.39062e-05)
(0.0393455 0.142747 1.92094e-06)
(0.0362959 0.131534 -2.87924e-05)
(0.0652773 0.238011 -0.000199481)
(0.0677339 0.246951 -0.000199622)
(0.0316226 0.110515 -9.77631e-05)
(0.0357491 0.128856 -0.000109109)
(0.0375141 0.131108 -0.000100607)
(0.0374326 0.134918 -0.00010957)
(0.274879 0.806909 -0.00012476)
(0.275047 0.807354 -9.20609e-05)
(0.285987 0.664396 -8.3226e-05)
(0.285795 0.663949 -8.00289e-05)
(-0.200975 1.8632 -0.000145264)
(-0.067003 1.63937 -0.000171558)
(1.39246 0.923186 -0.000243871)
(-0.872128 2.83684 -0.000341948)
(-0.0671845 1.64367 -0.000206175)
(-0.204742 1.89721 -0.000265179)
(0.0774826 0.284092 4.86576e-05)
(0.0718045 0.263252 5.0227e-05)
(0.0402882 0.146101 2.98165e-05)
(0.0360061 0.126642 2.41036e-05)
(0.0284172 0.09992 2.25071e-05)
(0.0359309 0.130291 2.8533e-05)
(0.410254 2.42756 -0.00179889)
(0.385847 2.28291 -0.00170499)
(-0.000499537 -0.00593819 1.69245e-05)
(-0.00316325 -0.0213544 2.9729e-05)
(-0.0279968 -0.175735 0.00014069)
(-0.0249709 -0.1571 0.000125231)
(-0.00782036 -0.0483034 5.20238e-05)
(-0.00438417 -0.0284196 3.52787e-05)
(1.36678 0.90496 -0.000759402)
(1.3755 0.910749 -0.000772028)
(1.38102 0.914424 -0.000786366)
(1.37605 0.911117 -0.000773422)
(-0.0214205 -0.126989 0.000117396)
(-0.0158343 -0.0946707 9.00425e-05)
(0.349394 2.06625 -0.00150381)
(0.374946 2.21817 -0.00165154)
(-0.0938737 -0.755479 0.000551858)
(-0.0293798 -0.184252 0.00014742)
(-0.0333113 -0.208461 0.000167393)
(-0.00941131 -0.0575094 5.93325e-05)
(-0.0138606 -0.0832522 8.07292e-05)
(0.195775 0.848739 -0.000668061)
(0.511146 2.50498 -0.00188562)
(0.188083 0.815533 -0.00064602)
(0.476643 2.33521 -0.00177203)
(0.282446 2.40365 -0.00169414)
(0.290687 2.47418 -0.00175535)
(0.0662632 0.270883 0.000182768)
(0.0536781 0.198959 -0.000125487)
(0.0564608 0.209313 -0.000134874)
(0.0623949 0.254977 -0.000475325)
(0.0988326 0.432418 -0.000252981)
(0.0660984 0.302978 -0.000164507)
(0.0944818 0.413241 -0.000234468)
(0.0701052 0.32152 -0.000181704)
(0.0596968 0.221355 -0.000145741)
(0.0573874 0.212761 -0.000138073)
(0.0709741 0.290258 0.000189869)
(-0.00228259 1.36919 -0.000924335)
(0.0573431 0.858045 -0.000587374)
(0.0586192 0.877239 -0.000600574)
(-0.00223216 1.34298 -0.000905056)
(-0.0639401 1.57921 -0.00106006)
(1.3653 0.903961 -0.000752274)
(-0.0646386 1.59629 -0.0010759)
(-0.00230045 1.37818 -0.000931047)
(0.0600455 0.898723 -0.000617353)
(-0.00232884 1.39103 -0.000943479)
(0.0590368 0.883526 -0.000605278)
(-0.0635203 1.5689 -0.00105217)
(1.36268 0.902224 -0.000749459)
(-0.062359 1.54039 -0.00103071)
(0.316196 2.69202 -0.00188349)
(0.310414 2.64258 -0.00185104)
(0.0433903 0.160679 -9.10021e-05)
(0.0476657 0.176588 -0.000105307)
(0.055949 0.228472 -0.000416757)
(0.0524801 0.194501 -0.000121641)
(0.0605932 0.247568 0.000173802)
(0.0491155 0.181981 -0.000110172)
(0.0831686 0.363357 -0.000188842)
(0.0607581 0.278263 -0.000142927)
(0.0883317 0.386127 -0.000210461)
(0.0560844 0.256625 -0.000122554)
(-0.0575042 1.42104 -0.000945753)
(-0.0597457 1.47621 -0.000982588)
(1.34275 0.888993 -0.000727945)
(0.0519664 0.777236 -0.000532771)
(-0.00201133 1.22574 -0.000822763)
(-0.00211126 1.28046 -0.000859071)
(0.0542841 0.81204 -0.000555489)
(-0.0021416 1.29647 -0.000870448)
(0.0567957 0.84979 -0.000581689)
(0.0550726 0.823889 -0.000563423)
(-0.00220872 1.33173 -0.000897005)
(-0.0604086 1.4925 -0.000994312)
(1.3481 0.892544 -0.000732397)
(-0.0618916 1.52894 -0.00102254)
(0.0748266 0.293111 -0.000267746)
(0.0750566 0.293873 -0.000267893)
(0.0552894 0.201942 -0.000201281)
(0.0555859 0.203167 -0.000204904)
(0.0750227 0.294062 -0.000268352)
(0.239864 1.13058 -0.000876958)
(0.403254 1.97328 -0.00151888)
(0.225237 1.01569 -0.000805603)
(0.17443 0.75448 -0.000628535)
(0.175451 0.75907 -0.00062933)
(0.23241 1.04863 -0.000829888)
(0.41138 2.01341 -0.00151858)
(0.251514 1.186 -0.000914076)
(0.0764204 0.29897 -0.000265894)
(0.076029 0.297488 -0.000266622)
(0.075063 0.29385 -0.000267259)
(0.0553304 0.202044 -0.000200023)
(0.0567878 0.207233 -0.000198503)
(0.262655 1.74961 -0.00125587)
(0.41919 2.61463 -0.00189221)
(0.275787 1.62953 -0.00118239)
(0.282301 1.66816 -0.00120865)
(0.449444 2.80381 -0.00200335)
(0.439767 2.74338 -0.00196677)
(0.269252 1.79369 -0.00127497)
(-0.00111216 -0.00879148 3.6493e-05)
(-0.0258527 -0.152633 0.00013885)
(0.0533624 0.260856 -0.000116529)
(0.00671928 0.0330388 1.26083e-05)
(-0.0282621 -0.166571 0.000151085)
(-0.00861918 -0.0496026 7.2177e-05)
(-0.0653934 -0.433998 0.000354254)
(-0.0531184 -0.330485 0.00027882)
(-0.0658311 -0.4783 0.000367547)
(-0.0513619 -0.319628 0.000265491)
(-0.0614772 -0.408102 0.000323167)
(0.46064 2.87385 -0.00204848)
(0.469974 2.93225 -0.00208481)
(0.292689 1.95036 -0.00137462)
(0.28671 1.91039 -0.00134813)
(-0.0203342 -0.113451 0.000135761)
(-0.0376603 -0.220996 0.000203501)
(0.0467605 0.228046 -8.70339e-05)
(0.00344126 0.0156988 2.78564e-05)
(0.0406001 0.197413 -6.01789e-05)
(-0.0352844 -0.20721 0.000188788)
(-0.0116118 -0.0658749 8.68267e-05)
(0.0291346 0.105211 -0.000109949)
(0.0295555 0.10682 -0.000113161)
(0.029133 0.105176 -0.000109002)
(0.0300051 0.108244 -0.000107717)
(0.120795 0.353662 -0.000183556)
(0.146759 0.429892 -0.000257719)
(0.195526 0.453537 -0.000307449)
(0.190259 0.44131 -0.000296853)
(0.162769 0.377495 -0.000242146)
(0.170978 0.39656 -0.00026235)
(0.153757 0.450446 -0.000277272)
(-0.608881 1.98327 -0.00124915)
(1.3256 0.877603 -0.000707272)
(-0.0561117 1.38689 -0.000920537)
(-0.168822 1.57073 -0.0010318)
(-0.581507 1.89428 -0.00125402)
(-0.511388 1.66526 -0.00095206)
(-0.52963 1.72502 -0.0010914)
(-0.146174 1.36073 -0.000888881)
(-0.0503241 1.24462 -0.000820349)
(1.30912 0.866648 -0.000671874)
(-0.5643 1.83837 -0.00116284)
(0.0869444 0.317068 -0.000204461)
(0.0800059 0.291744 -0.000204873)
(0.143458 0.135151 -0.00010973)
(0.398707 -0.165548 8.66732e-05)
(0.382973 -0.159012 8.18093e-05)
(0.157532 0.148422 -0.000114558)
(0.05378 0.188085 -0.000110107)
(0.0501452 0.180803 -0.000114124)
(0.0455976 0.164382 -0.000114103)
(0.0402656 0.140731 -0.000101439)
(0.189072 0.178154 -0.000130259)
(0.4169 -0.173092 8.14921e-05)
(0.435354 -0.180717 7.74156e-05)
(0.173586 0.16356 -0.000120444)
(0.609998 2.99223 -0.00123832)
(0.224507 0.9745 -0.000392599)
(0.218515 0.948652 -0.000394894)
(0.684875 3.35987 -0.00146552)
(0.249085 1.08059 -0.000741486)
(0.619668 3.03896 -0.0019774)
(0.240497 1.04374 -0.00067179)
(0.59781 2.93126 -0.0019591)
(0.198966 0.862929 -0.000600707)
(0.582048 2.85373 -0.00209278)
(0.192831 0.836673 -0.000609005)
(0.601496 2.94872 -0.00196269)
(-0.0656746 -0.531417 0.000204058)
(-0.0332659 -0.243956 0.000101047)
(-0.0479718 -0.349625 0.00025519)
(-0.059926 -0.435752 0.000326304)