/*--------------------------------*- C++ -*----------------------------------*\
| =========                 |                                                 |
| \\      /  F ield         | OpenFOAM: The Open Source CFD Toolbox           |
|  \\    /   O peration     | Version:  2306                                  |
|   \\  /    A nd           | Website:  www.openfoam.com                      |
|    \\/     M anipulation  |                                                 |
\*---------------------------------------------------------------------------*/
FoamFile
{
    version     2.0;
    format      ascii;
    arch        "LSB;label=32;scalar=64";
    class       volScalarField;
    location    "1.35";
    object      p;
}
// * * * * * * * * * * * * * * * * * * * * * * * * * * * * * * * * * * * * * //

dimensions      [0 2 -2 0 0 0 0];

internalField   nonuniform List<scalar> 
111542
(
60.6821
61.9569
65.0161
70.0395
77.1103
86.4429
98.2041
112.44
128.686
145.56
160.554
169.707
168.967
157.034
136.81
113.904
92.2949
73.575
57.992
45.4507
35.5644
27.9854
22.3044
18.002
14.7394
12.2386
10.2189
8.64623
7.46928
6.56027
5.83642
5.24183
4.78888
4.40712
4.04486
3.6602
3.19974
2.65847
1.93563
0.940777
59.5693
60.8032
63.831
68.7966
75.8632
85.3488
97.6306
112.973
131.235
151.385
170.794
183.952
183.273
167.339
141.759
115.048
91.3989
71.6192
55.6032
43.0222
33.3894
26.138
20.7269
16.7533
13.7699
11.4502
9.6262
8.21462
7.12703
6.27082
5.58261
5.02288
4.56718
4.17542
3.80781
3.42651
2.98818
2.44765
1.73458
0.792228
57.3666
58.5335
61.4227
66.2129
73.1762
82.8215
95.8634
113.12
135.273
162.196
190.625
212.078
212.34
187.236
151.273
118.064
90.5696
68.6649
51.7604
39.0414
29.7021
23.1047
18.3956
14.9488
12.1284
9.82143
8.07012
6.78746
5.83455
5.11034
4.55466
4.126
3.78921
3.51092
3.25601
2.98784
2.66207
2.22175
1.59153
0.688745
54.1349
55.1771
57.7795
62.1671
68.722
78.1677
91.6534
110.885
138.281
177.115
212.057
254.781
260.695
220.159
168.105
127.467
94.1984
68.8607
50.3362
36.9425
23.4587
17.3652
14.8544
13.3701
11.3512
9.28113
7.63114
6.38738
5.41569
4.63981
4.02433
3.53898
3.15389
2.83855
2.56421
2.29912
1.99851
1.59914
1.00275
0.0751533
49.9961
50.8344
52.9506
56.5852
62.1724
70.5509
83.1621
102.431
132.392
176.988
253.827
340.234
364.527
257.095
172.496
123.249
83.4232
56.568
38.9254
27.615
20.246
6.82219
6.00551
6.37386
5.60675
4.70791
4.06857
3.59394
3.19911
2.87103
2.60883
2.40147
2.23647
2.09898
1.97672
1.8531
1.69726
1.45359
0.998202
0.0189747
45.1584
45.706
47.1138
49.5809
53.4776
59.5313
69.0661
84.5304
110.687
165.177
258.759
453.982
619.942
248.281
175.384
114.87
66.9349
40.4276
24.9166
15.534
10.719
11.9571
11.8289
7.56393
4.54737
3.12264
2.37036
1.82515
1.40385
1.10245
0.897898
0.760003
0.667429
0.606928
0.569051
0.544122
0.520863
0.489479
0.461577
0.579541
39.9267
40.1138
40.6291
41.5711
43.1163
45.5987
49.5982
56.0946
66.7728
105.943
181.496
412.292
1951.67
-418.289
207.491
79.5112
30.6743
15.3407
7.30385
-1.7942
-5.8034
14.7749
14.4276
9.02273
5.72064
4.40221
3.77044
3.28477
2.88194
2.57304
2.33973
2.15527
2.00452
1.87875
1.77368
1.68557
1.60329
1.52136
1.43845
1.39389
34.6801
34.4839
34.0286
33.2886
32.1946
30.5727
28.02
23.5896
14.8842
16.9973
-0.116392
-161.457
-997.914
-1047.93
-309.588
-100.756
-46.6094
-26.4121
-17.1765
-10.7029
-3.30907
-8.56393
-6.57945
-4.77341
-3.74921
-2.74999
-1.80473
-1.05603
-0.490699
-0.047261
0.311594
0.603172
0.839979
1.03156
1.18428
1.29866
1.3601
1.33698
1.159
0.68552
29.8471
29.2972
27.9272
25.6124
22.0872
16.7974
8.7255
-4.01866
-25.0569
-48.2804
-121.684
-265.942
-475.364
-503.683
-318.793
-174.894
-100.78
-61.5882
-39.5374
-25.5066
-15.4577
-8.83013
-4.71192
-1.72872
0.0749789
1.19166
1.97364
2.51868
2.87204
3.08859
3.21365
3.2752
3.28938
3.265
3.20359
3.09913
2.92772
2.63927
2.13402
1.2097
25.8392
24.9844
22.8696
19.2961
13.8885
5.92753
-5.78624
-23.2179
-49.6411
-90.6452
-148.196
-220.798
-286.17
-294.641
-237.774
-165.372
-110.395
-74.9028
-51.7854
-35.738
-24.3518
-16.7804
-11.7005
-8.07255
-5.49494
-3.65597
-2.27938
-1.21853
-0.40224
0.224874
0.710847
1.0905
1.38511
1.606
1.75387
1.82261
1.78856
1.60728
1.21438
0.55535
22.9733
21.9099
19.2826
14.8652
8.24097
-1.30377
-14.8671
-33.9375
-60.3839
-96.0901
-141.087
-190.264
-229.006
-236.544
-206.732
-158.463
-114.329
-81.9164
-59.0473
-42.3496
-29.926
-20.8233
-14.1564
-9.26437
-5.68742
-3.08642
-1.18593
0.209774
1.229
1.96383
2.48588
2.84848
3.08751
3.22339
3.25614
3.19655
3.02042
2.67921
2.09664
1.13541
21.4796
20.3218
17.422
12.6058
5.3844
-4.86142
-19.1438
-38.6067
-64.4199
-96.9766
-134.851
-172.737
-200.742
-207.292
-188.133
-152.634
-115.417
-85.0042
-62.2888
-45.2949
-32.4449
-22.8358
-15.7821
-10.6501
-6.96396
-4.30341
-2.3687
-0.950825
0.0931344
0.862071
1.42768
1.84135
2.13869
2.34444
2.40505
2.3958
2.27413
1.98768
1.48283
0.700793
60.1879
61.4038
64.3854
69.2413
76.0671
85.0667
96.4364
110.177
125.827
142.104
156.585
165.422
164.638
153.063
133.452
111.179
90.156
71.8897
56.6748
44.4123
34.7828
27.3734
21.7632
17.5483
14.3514
11.8663
9.90212
8.3773
7.21581
6.32349
5.62618
5.07392
4.63544
4.26631
3.92414
3.56916
3.15763
2.64221
1.94349
0.959825
59.0842
60.2717
63.2012
68.0002
74.825
83.9827
95.8417
110.652
128.28
147.753
166.54
179.357
178.539
163.027
138.193
112.254
89.2356
69.9346
54.3028
42.0319
32.6299
25.4997
20.1458
16.2399
13.3266
11.0604
9.28491
7.91359
6.85638
6.02829
5.3691
4.83873
4.40612
4.03621
3.69436
3.34419
2.94452
2.44229
1.76662
0.838198
56.904
58.0253
60.813
65.4387
72.1609
81.4708
94.0625
110.733
132.156
158.23
185.784
206.584
206.916
182.439
147.475
115.227
88.4221
67.0068
50.4986
38.1025
28.9719
22.4207
17.7045
14.278
11.51
9.27591
7.60631
6.40519
5.52683
4.86704
4.36554
3.98116
3.6799
3.43048
3.20312
2.96492
2.67602
2.27862
1.68925
0.789266
53.7072
54.7047
57.2099
61.4398
67.7606
76.8731
89.8968
108.501
135.067
172.837
208.24
250.202
255.907
215.71
164.779
125.111
92.4441
67.4883
49.2772
36.1303
22.3107
16.0326
13.8216
12.5689
10.6431
8.64439
7.07965
5.92265
5.02781
4.31658
3.75484
3.31355
2.96568
2.68369
2.4432
2.2173
1.96797
1.63299
1.10605
0.206565
49.6163
50.413
52.4426
55.9369
61.3138
69.3875
81.5664
100.234
129.376
173.978
249.76
335.124
358.618
251.376
168.7
121.14
81.9567
55.3715
37.9617
26.8506
19.537
3.26416
3.16655
4.36582
4.07913
3.524
3.17409
2.93076
2.70512
2.49231
2.30306
2.1375
1.9948
1.86984
1.75868
1.65486
1.53868
1.36067
0.994936
0.0937963
44.8393
45.3494
46.6884
49.0459
52.7787
58.5954
67.795
82.7956
108.334
162.692
255.928
449.874
614.56
241.413
169.271
113.612
66.3419
39.9069
24.4106
15.1172
12.133
10.8189
10.8048
6.69609
3.86953
2.62436
2.01072
1.55811
1.18818
0.907045
0.702992
0.555292
0.451832
0.384716
0.350685
0.34759
0.374504
0.433499
0.542587
0.804882
39.6799
39.8335
40.3034
41.1772
42.6256
44.9766
48.8083
55.1126
65.6214
104.675
180.022
409.482
1941.36
184.14
80.4575
31.2962
15.1121
6.43059
-3.29369
-7.3743
16.4223
15.092
8.88572
5.24415
3.77473
3.05132
2.50997
2.07812
1.75529
1.51544
1.32917
1.18267
1.06854
0.986313
0.937386
0.922882
0.947916
1.02711
1.20643
34.4733
34.2847
33.8108
33.0474
31.9312
30.2969
27.764
23.4399
15.0348
17.2419
0.533734
-159.559
-985.229
-1020.37
-305.246
-99.7967
-46.153
-26.4332
-17.5621
-11.3044
-3.70763
-7.38629
-5.90331
-4.57112
-3.6939
-2.74507
-1.86081
-1.178
-0.669551
-0.272559
0.0489977
0.312703
0.532093
0.716739
0.875586
1.01294
1.12146
1.17476
1.10315
0.730464
29.7213
29.1725
27.8044
25.5104
22.0315
16.8319
8.93149
-3.49528
-23.9585
-47.0319
-118.86
-260.849
-467.155
-492.52
-313.042
-171.747
-98.9044
-60.5834
-39.1183
-25.4385
-15.427
-8.61097
-4.76903
-2.01855
-0.292008
0.791662
1.53653
2.04538
2.37076
2.56735
2.67879
2.73249
2.74474
2.72532
2.67803
2.60042
2.47334
2.25159
1.84095
1.04977
25.7621
24.9112
22.8299
19.3119
14.0011
6.20522
-5.23693
-22.2269
-47.9379
-87.8129
-143.798
-214.589
-278.659
-286.848
-231.498
-161.127
-107.773
-73.3847
-50.9916
-35.4305
-24.3394
-16.8732
-11.8738
-8.29648
-5.74473
-3.9218
-2.55942
-1.51307
-0.711687
-0.0993166
0.373355
0.742263
1.03002
1.24919
1.40334
1.48818
1.48336
1.348
1.02271
0.4607
22.9331
21.8869
19.301
14.9567
8.46873
-0.866562
-14.106
-32.6883
-58.4169
-93.1288
-136.875
-184.724
-222.562
-230.15
-201.256
-154.485
-111.695
-80.2704
-58.0798
-41.857
-29.7621
-20.8646
-14.3108
-9.50216
-5.98873
-3.43116
-1.55841
-0.181285
0.823992
1.54772
2.06127
2.41788
2.6536
2.79018
2.83543
2.79159
2.64004
2.33922
1.82251
0.979944
21.4606
20.3124
17.4744
12.724
5.67139
-4.35105
-18.29
-37.2618
-62.355
-94.031
-130.88
-167.778
-195.146
-201.77
-183.359
-148.885
-112.755
-83.2642
-61.2109
-44.6936
-32.1793
-22.8007
-15.8961
-10.8767
-7.246
-4.61642
-2.7009
-1.29472
-0.258356
0.504986
1.06606
1.47578
1.76831
1.96228
2.05639
2.06099
1.95563
1.7012
1.25437
0.588257
59.2137
60.3415
63.1294
67.6627
74.0259
82.4045
92.9788
105.733
120.234
135.307
148.691
156.818
156.015
145.114
126.654
105.65
85.7544
68.3983
53.9209
42.259
33.1124
26.0481
20.6607
16.6071
13.5356
11.1459
9.26104
7.78726
6.64853
5.76798
5.08043
4.53736
4.10141
3.73827
3.41315
3.08891
2.72406
2.2674
1.65153
0.790703
58.1318
59.2316
61.9632
66.439
72.7972
81.3181
92.3402
106.089
122.442
140.506
157.963
169.762
169.013
154.408
131.039
106.609
84.8227
66.4747
51.6153
39.984
31.0925
24.2833
19.14
15.4043
12.6287
10.4518
8.72031
7.35911
6.29282
5.45036
4.77916
4.24107
3.804
3.43777
3.11229
2.79447
2.4455
2.01432
1.43645
0.647212
55.9961
57.0295
59.6204
63.9254
70.1775
78.8291
90.5252
106.012
125.932
150.222
175.94
195.558
195.709
172.557
139.704
109.383
83.9582
63.5529
47.8791
36.2189
27.7881
21.5576
16.9499
13.6308
10.994
8.84792
7.2001
5.97683
5.05801
4.3546
3.81416
3.39976
3.0793
2.8248
2.60962
2.40574
2.17722
1.87067
1.40358
0.653376
52.8686
53.7811
56.0987
60.0214
65.8836
74.336
86.4281
103.739
128.543
163.985
198.866
238.97
244.248
205.384
157.014
119.596
88.279
64.2491
46.8093
34.342
21.2677
15.8144
13.6669
12.2263
10.1137
7.94649
6.22313
4.92821
3.92562
3.13933
2.53162
2.06978
1.72257
1.46074
1.26148
1.10312
0.956174
0.768943
0.446625
-0.169469
48.8725
49.5924
51.4552
54.6757
59.6384
67.1037
78.4013
95.8027
123.16
166.622
239.536
322.216
344.325
238.805
160.747
116.404
78.3262
52.4049
35.6383
25.1103
18.5974
3.92441
4.29209
5.37127
4.69711
3.6801
2.91338
2.33114
1.84308
1.43642
1.11264
0.86471
0.685047
0.561533
0.488926
0.463783
0.479292
0.504204
0.430234
-0.124007
44.2049
44.6605
45.8677
48.0097
51.4179
56.7577
65.2669
79.2722
103.417
156.519
247.98
438.863
599.017
225.227
162.895
111.447
63.9848
37.2795
22.1413
13.4427
13.19
8.44795
7.91782
3.5693
0.473954
-1.03531
-1.79405
-2.27443
-2.59755
-2.79187
-2.89012
-2.92808
-2.91291
-2.85512
-2.75262
-2.59416
-2.3558
-1.99449
-1.41664
-0.347673
39.1729
39.2951
39.6805
40.4208
41.6761
43.7594
47.2326
53.0984
63.1706
101.617
176.586
406.516
1925.52
202.239
82.0477
30.952
13.6415
5.12867
-4.67692
-13.4411
12.1562
11.0259
5.12326
1.84927
0.684717
0.186714
-0.181808
-0.48091
-0.705641
-0.87326
-1.00267
-1.0996
-1.15596
-1.16261
-1.10294
-0.950152
-0.664203
-0.165211
0.710044
34.1251
33.9058
33.3987
32.5934
31.4316
29.7643
27.2555
23.1167
15.2914
17.9474
3.11213
-149.895
-960.397
-994.474
-295.118
-94.452
-43.8325
-25.8582
-17.9047
-12.1862
-5.41889
-9.00271
-8.04255
-6.98765
-5.99109
-4.81869
-3.7321
-2.87485
-2.21695
-1.69812
-1.27931
-0.937022
-0.653066
-0.410126
-0.185936
0.0355452
0.267364
0.504329
0.696213
0.643697
29.49
28.9357
27.589
25.3389
21.9488
16.9232
9.35641
-2.43947
-21.726
-43.792
-111.815
-247.658
-446.822
-472.167
-299.189
-163.62
-94.478
-58.3876
-38.254
-25.3822
-15.8821
-9.92317
-6.3256
-3.61287
-1.832
-0.668081
0.162341
0.753923
1.15336
1.41244
1.57696
1.67732
1.73399
1.76099
1.77151
1.77084
1.75181
1.68192
1.47499
0.926552
25.6349
24.8066
22.7785
19.3709
14.2514
6.7774
-4.13068
-20.2402
-44.5096
-82.0442
-134.762
-201.754
-262.914
-271.253
-219.175
-152.851
-102.715
-70.4543
-49.4224
-34.793
-24.3944
-17.5093
-12.6026
-9.0403
-6.54705
-4.76692
-3.40238
-2.32356
-1.47738
-0.817415
-0.297552
0.116388
0.448096
0.709835
0.912323
1.05589
1.12772
1.09466
0.898748
0.468061
22.879
21.8656
19.3652
15.1762
8.94491
0.0175607
-12.5861
-30.2015
-54.5042
-87.2202
-128.454
-173.689
-209.78
-217.419
-190.513
-146.608
-106.422
-76.8985
-56.0069
-40.7047
-29.2849
-20.863
-14.5529
-9.89764
-6.5133
-4.04861
-2.22464
-0.863668
0.144174
0.8809
1.41385
1.79409
2.0575
2.22625
2.31348
2.32083
2.23523
2.02297
1.62261
0.920221
21.443
20.336
17.5974
13.0209
6.25775
-3.31897
-16.5814
-34.5669
-58.2797
-88.1696
-122.944
-157.855
-183.948
-190.608
-173.629
-141.382
-107.465
-79.7333
-58.9416
-43.3322
-31.483
-22.5768
-15.9739
-11.1348
-7.61724
-5.0665
-3.20117
-1.81866
-0.786413
-0.0145481
0.562822
0.993958
1.31177
1.53505
1.67213
1.72188
1.67126
1.49078
1.1407
0.583766
57.817
58.8257
61.3347
65.415
71.1287
78.6275
88.058
99.388
112.217
125.499
137.228
144.248
143.377
133.451
116.704
97.5947
79.3733
63.3747
49.9927
39.2138
30.7545
24.1666
19.0469
15.1228
12.1438
9.85564
8.07686
6.69876
5.64067
4.8293
4.20281
3.71292
3.32315
3.00299
2.72265
2.4509
2.1525
1.78286
1.28446
0.586864
56.7665
57.7459
60.198
64.2177
69.9154
77.527
87.3396
99.5372
113.996
129.924
145.308
155.482
154.769
141.57
120.463
98.3079
78.3662
61.4582
47.7605
37.0717
28.9062
22.486
17.4799
13.7991
11.1071
9.0428
7.42248
6.15968
5.18121
4.41853
3.82062
3.34773
2.96819
2.65531
2.38453
2.12983
1.8598
1.5315
1.08815
0.469532
54.6948
55.6079
57.9221
61.7722
67.3528
75.0538
85.4367
99.1531
116.767
138.233
160.983
178.465
178.341
157.453
127.997
100.61
77.2933
58.4702
44.0846
33.5202
26.071
19.9682
14.9814
11.5289
9.09034
7.22611
5.80582
4.75076
3.96427
3.36766
2.91151
2.56336
2.29717
2.08955
1.92388
1.78191
1.63976
1.45462
1.14839
0.572361
51.6663
52.4644
54.5176
58.0017
63.2025
70.6878
81.3843
96.6967
118.666
150.175
183.361
220.06
224.656
188.577
144.721
110.765
81.5877
59.1413
42.9961
31.6344
19.5762
14.1588
10.9386
9.02457
7.18189
5.4822
4.15566
3.16581
2.40225
1.802
1.33255
0.973826
0.702733
0.498695
0.35647
0.270466
0.232884
0.214678
0.138005
-0.193775
47.805
48.4246
50.052
52.8787
57.2375
63.7969
73.742
89.1131
113.436
154.23
221.426
298.75
319.064
218.589
148.878
108.739
72.1336
47.4228
31.7776
22.1239
16.0034
-1.2853
-0.379781
1.56264
1.60291
1.0791
0.638123
0.281247
-0.0451963
-0.336177
-0.581587
-0.770227
-0.908747
-0.998454
-1.02711
-0.978792
-0.829935
-0.569339
-0.256653
-0.258376
43.3093
43.6842
44.7046
46.5341
49.4622
54.0784
61.4905
73.8168
95.3863
145.446
232.76
417.25
569.508
198.946
152.451
106.319
59.0506
32.9918
18.6376
10.3512
8.63311
-3.144
-0.633582
-1.19499
-2.34747
-2.95514
-3.24682
-3.48134
-3.69631
-3.8712
-4.00128
-4.1053
-4.16549
-4.18053
-4.12938
-3.97492
-3.65375
-3.05399
-1.98153
-0.136378
38.467
38.539
38.8037
39.3473
40.3101
41.9689
44.8349
49.861
58.8497
95.5007
168.948
400.962
1888.23
224.186
89.2283
30.4753
10.7632
1.39503
-8.05754
-18.2403
12.1166
10.4373
3.98818
0.194413
-1.53693
-2.50417
-3.19815
-3.70761
-4.06273
-4.30394
-4.45749
-4.54656
-4.57631
-4.52165
-4.35242
-4.00768
-3.38396
-2.31244
-0.587124
33.6261
33.3769
32.8232
31.9539
30.7144
28.9695
26.4334
22.4422
15.2551
18.3104
6.42028
-132.237
-897.216
-951.526
-272.114
-84.6941
-41.6168
-26.5417
-19.6127
-14.2232
-6.94608
-8.1999
-7.21272
-6.49457
-5.82257
-4.97039
-4.14113
-3.47266
-2.95971
-2.56087
-2.24547
-1.98114
-1.77176
-1.58816
-1.39408
-1.15923
-0.845683
-0.416936
0.118329
0.525843
29.1737
28.6209
27.2999
25.1081
21.8349
17.0393
9.92009
-1.00994
-18.6186
-38.902
-100.861
-225.996
-412.379
-437.005
-275.021
-150.563
-88.0854
-55.5446
-37.3302
-25.6421
-17.0417
-11.8932
-7.39425
-4.13618
-2.40948
-1.49348
-0.891382
-0.479001
-0.218345
-0.061506
0.0349451
0.0986139
0.142064
0.181461
0.233143
0.3086
0.413702
0.538969
0.622914
0.491773
25.4715
24.6719
22.7244
19.4722
14.6189
7.5948
-2.56243
-17.4174
-39.5883
-73.6061
-121.301
-182.22
-238.329
-246.689
-200.047
-140.401
-95.3453
-66.237
-47.1499
-33.8628
-24.4933
-18.3826
-13.0975
-9.20798
-6.73055
-5.08571
-3.84196
-2.85613
-2.08511
-1.48561
-1.01243
-0.631724
-0.322438
-0.069132
0.143422
0.320214
0.457413
0.535149
0.506123
0.302653
22.8221
21.8558
19.4759
15.5061
9.63484
1.28115
-10.4258
-26.6635
-48.9083
-78.6927
-116.149
-157.329
-190.522
-198.065
-174.236
-134.861
-98.6961
-71.9844
-52.9572
-38.9701
-28.5288
-20.7871
-14.7268
-10.1469
-6.85354
-4.50392
-2.78742
-1.517
-0.584351
0.0914575
0.577818
0.925968
1.17137
1.33725
1.43971
1.48278
1.45823
1.34196
1.08702
0.619299
21.4412
20.3908
17.7927
13.4668
7.10807
-1.84127
-14.1558
-30.7453
-52.4894
-79.7793
-111.47
-143.35
-167.394
-173.959
-159.101
-130.312
-99.7701
-74.6166
-55.6312
-41.3113
-30.4102
-22.1748
-15.9684
-11.307
-7.88037
-5.40796
-3.61602
-2.29545
-1.31318
-0.581615
-0.0362158
0.371158
0.673638
0.892038
1.03769
1.11174
1.10461
0.995524
0.756623
0.379251
56.0906
56.9575
59.129
62.6587
67.581
74.0031
82.0232
91.5814
102.304
113.284
122.837
128.372
127.293
118.568
104.042
87.3996
71.3578
57.1188
45.1293
35.4435
27.8395
21.9221
17.2944
13.6839
10.9069
8.77282
7.11878
5.83591
4.84729
4.08736
3.50203
3.04271
2.67863
2.3859
2.13798
1.90897
1.67041
1.38511
1.00379
0.454256
55.079
55.9161
58.0295
61.4938
66.3833
72.8753
81.1834
91.4242
103.447
116.545
129.03
137.045
136.163
124.798
106.738
87.6207
70.1395
55.1426
42.9387
33.4237
26.2068
20.5575
16.0856
12.6498
10.0653
8.07453
6.50981
5.2848
4.33419
3.59877
3.03472
2.59008
2.2385
1.95668
1.72593
1.52457
1.32775
1.10236
0.800811
0.353294
53.087
53.8589
55.8372
59.1305
63.8837
70.4013
79.1232
90.5494
105.088
122.64
141.106
155.121
154.56
136.923
112.204
88.8438
68.5005
51.8765
39.1657
29.9747
23.9227
18.8013
14.0428
10.5649
8.20435
6.46684
5.12804
4.10766
3.33065
2.73529
2.27232
1.92139
1.65796
1.45855
1.31296
1.21129
1.14179
1.07674
0.950498
0.579947
50.1833
50.8454
52.5775
55.5219
59.8998
66.1633
75.0536
87.6882
105.678
131.31
161.175
191.998
195.472
164.326
127.352
98.0316
72.0877
52.1356
37.8849
28.1679
19.4083
16.7892
11.4804
7.6183
5.1091
3.3087
1.99544
1.05576
0.378315
-0.112858
-0.470841
-0.724516
-0.899246
-1.01893
-1.07887
-1.0647
-0.961347
-0.76067
-0.488959
-0.3247
46.4914
46.9898
48.3305
50.6697
54.2691
59.6653
67.811
80.3515
100.15
136.09
192.79
259.548
276.821
188.359
132.121
95.9388
62.2336
40.0365
26.3584
18.4777
15.9022
8.20168
5.3601
3.6559
2.06341
0.690114
-0.341808
-1.1304
-1.77362
-2.28011
-2.66479
-2.93689
-3.11601
-3.22198
-3.24107
-3.12973
-2.83731
-2.2829
-1.40536
-0.48262
42.2058
42.4842
43.2766
44.7174
47.0349
50.6995
56.5992
66.4534
83.8284
127.77
205.666
373.89
514.31
167.798
152.401
96.5103
49.2407
24.7046
11.9384
4.72877
-1.18454
-30.0127
-27.4241
-25.6679
-24.6987
-23.5303
-22.3612
-21.3642
-20.5139
-19.7809
-19.1388
-18.58
-18.058
-17.5287
-16.9527
-16.27
-15.3583
-13.9645
-11.525
-6.62301
37.6019
37.6123
37.7293
38.0249
38.6066
39.685
41.6648
45.3189
52.1605
84.4227
151.423
372.351
1819.98
258.75
72.6653
14.7943
-2.8364
-9.86654
-15.5604
-21.9254
-3.43928
-5.2232
-9.74184
-12.0638
-12.8596
-13.1391
-13.2653
-13.2953
-13.2525
-13.1604
-13.0447
-12.8635
-12.6203
-12.292
-11.8174
-11.0816
-9.8493
-7.67585
-3.86013
33.0113
32.7359
32.1248
31.1692
29.8143
27.9335
25.2759
21.2849
14.5394
17.2344
7.56927
-115.829
-819.553
-849.44
-234.754
-77.8876
-43.3577
-30.763
-24.3974
-19.1183
-13.7682
-22.3861
-17.7024
-13.6181
-11.3796
-9.80705
-8.56826
-7.6439
-6.97307
-6.4807
-6.11158
-5.81728
-5.57956
-5.36068
-5.11702
-4.79398
-4.31571
-3.56301
-2.39562
-0.818263
28.7924
28.2468
26.9537
24.8267
21.6831
17.1446
10.5346
0.618669
-14.9802
-32.8797
-86.4412
-195.139
-358.844
-379.205
-238.417
-133.155
-80.53
-52.5503
-36.5947
-26.5543
-20.611
-19.1734
-12.685
-7.56841
-5.04305
-3.74268
-2.87598
-2.26478
-1.85522
-1.58532
-1.40158
-1.27146
-1.17382
-1.07878
-0.964014
-0.804463
-0.570538
-0.233909
0.191075
0.505078
25.2822
24.5183
22.6697
19.6018
15.0684
8.57758
-0.672347
-13.9864
-33.5263
-62.9904
-103.848
-155.903
-203.96
-212.033
-173.746
-124.058
-86.0259
-60.9573
-44.2383
-32.604
-24.6883
-20.0348
-14.7976
-10.5797
-7.85804
-6.03711
-4.65099
-3.55388
-2.70093
-2.04364
-1.53224
-1.12734
-0.805204
-0.538424
-0.308232
-0.0998441
0.0957958
0.275795
0.404748
0.37519
22.7693
21.8598
19.6255
15.919
10.4818
2.82164
-7.79199
-22.3349
-42.0102
-68.0466
-100.504
-136.044
-164.922
-172.062
-152.565
-119.583
-88.8451
-65.7189
-48.9747
-36.579
-27.3647
-20.6113
-15.1777
-10.834
-7.59264
-5.23774
-3.49581
-2.18956
-1.21574
-0.497278
0.0308403
0.418693
0.701804
0.906782
1.0517
1.14581
1.18828
1.16318
1.02793
0.680755
21.4585
20.4753
18.0461
14.021
8.14871
-0.0408924
-11.1972
-26.0718
-45.3712
-69.3758
-97.0724
-124.88
-146.013
-152.242
-140.099
-116.009
-89.9507
-68.0983
-51.3466
-38.5912
-28.8475
-21.483
-15.8849
-11.5531
-8.26967
-5.84824
-4.06217
-2.7231
-1.70945
-0.941363
-0.359283
0.0825111
0.416938
0.666658
0.845242
0.958085
1.00042
0.956259
0.797768
0.485193
54.153
54.8684
56.6719
59.5982
63.6525
68.8917
75.3573
82.9518
91.3198
99.6911
106.726
110.492
109.029
101.581
89.5874
75.8144
62.3628
50.2199
39.8513
31.3578
24.5849
19.2557
15.1024
11.8885
9.40942
7.48472
5.97952
4.8048
3.89585
3.19551
2.66349
2.24362
1.90856
1.64412
1.4239
1.22437
1.02622
0.800622
0.518431
0.154403
53.1852
53.8709
55.6153
58.47
62.4712
67.7279
74.3664
82.415
91.6675
101.467
110.394
115.873
114.511
105.181
90.7283
75.274
60.8296
48.1817
37.6934
29.3328
22.7703
17.6656
13.7
10.6723
8.36261
6.55947
5.13
3.99723
3.10572
2.40529
1.91691
1.51812
1.20024
0.941812
0.740163
0.578179
0.430109
0.278421
0.103437
-0.0851729
51.2832
51.9062
53.5184
56.199
60.0382
65.24
72.0952
80.9041
91.8404
104.642
117.676
126.894
125.52
111.65
92.601
74.3853
58.1128
44.3843
33.6051
25.4612
19.1944
14.6832
10.9575
8.11696
6.03539
4.45446
3.23192
2.30865
1.6038
1.07714
0.634375
0.325199
0.111178
-0.031273
-0.12295
-0.162855
-0.156476
-0.108643
-0.0428605
-0.0170183
48.5199
49.0409
50.4222
52.7705
56.2334
61.1243
67.9493
77.4362
90.5507
108.45
132.835
154.589
156.068
132.075
103.81
80.7413
59.7762
43.3304
31.3695
22.9395
12.0546
9.34354
6.27181
3.58038
1.51769
-0.0615573
-1.30489
-2.2486
-2.93883
-3.41849
-3.74841
-3.94852
-4.05358
-4.0952
-4.07144
-3.95448
-3.72181
-3.32602
-2.69302
-1.66297
45.0234
45.3922
46.4199
48.2186
50.9669
55.0395
61.0848
70.1947
84.1971
112.61
152.489
199.34
208.686
140.719
101.497
73.7001
46.8588
29.0203
17.9394
11.6422
10.1305
-2.06591
-3.73704
-4.64854
-5.86901
-7.00786
-7.80599
-8.37338
-8.89066
-9.23785
-9.41481
-9.48464
-9.42803
-9.26887
-9.06843
-8.73529
-8.19662
-7.31348
-5.85386
-3.47784
40.9722
41.1477
41.6917
42.7004
44.3277
46.8902
50.9812
57.7181
69.3579
102.927
161.901
289.391
394.761
102.999
116.473
59.4426
21.2172
2.2262
-7.29681
-11.7292
-9.00181
-22.7751
-25.2071
-29.8842
-31.5533
-31.5823
-31.1225
-30.488
-29.6556
-28.8084
-27.9953
-27.1786
-26.4024
-25.6377
-24.7723
-23.7619
-22.4664
-20.5417
-17.1821
-10.3823
36.6381
36.58
36.5361
36.5552
36.6984
37.0891
37.9661
39.775
43.3699
67.4479
118.339
300.457
1642.67
261.724
-16.0733
-59.6478
-68.1047
-69.0806
-67.669
-62.8729
-35.9218
-34.8897
-37.083
-37.3189
-36.345
-35.1442
-33.9816
-32.8536
-31.787
-30.7847
-29.8456
-28.9235
-27.9657
-26.9748
-25.8605
-24.4668
-22.4211
-18.8599
-11.5387
32.3296
32.027
31.3514
30.2943
28.7978
26.7343
23.8652
19.7062
13.1364
14.2906
5.66826
-90.7276
-652.613
-645.804
-189.98
-81.3024
-55.4045
-43.85
-37.0867
-31.4951
-28.8682
-31.3219
-26.7423
-22.6185
-20.188
-18.3845
-16.9513
-15.8429
-14.976
-14.2811
-13.7079
-13.2204
-12.8004
-12.3679
-11.9066
-11.3584
-10.6178
-9.49288
-7.62616
-4.28658
28.375
27.8444
26.575
24.5126
21.5022
17.2288
11.1462
2.30708
-10.9495
-26.1148
-68.7201
-151.639
-275.024
-291.802
-189.58
-112.158
-71.6763
-48.828
-35.1538
-26.5505
-23.8279
-18.7313
-14.8321
-11.6983
-9.81352
-8.55741
-7.58616
-6.81775
-6.21244
-5.7298
-5.33602
-5.00555
-4.72375
-4.45661
-4.17941
-3.862
-3.4586
-2.9033
-2.10465
-0.943591
25.0826
24.3556
22.6167
19.7464
15.5535
9.64528
1.38706
-10.2161
-26.7556
-50.9033
-83.4695
-123.779
-160.315
-167.956
-140.805
-103.864
-74.2548
-53.7377
-39.4725
-29.2702
-22.157
-18.1723
-14.5382
-11.4703
-9.1774
-7.46234
-6.11653
-5.04334
-4.19262
-3.51866
-2.98036
-2.54341
-2.18507
-1.87698
-1.59901
-1.33349
-1.066
-0.783673
-0.481045
-0.150105
22.7271
21.8804
19.8042
16.3836
11.4188
4.51795
-4.89332
-17.5579
-34.3454
-56.0758
-82.6197
-111.214
-134.469
-140.726
-126.526
-101.51
-77.1828
-58.1434
-43.8902
-33.1058
-24.9664
-19.0146
-14.4323
-10.8128
-8.05209
-5.9902
-4.43765
-3.25584
-2.35399
-1.66599
-1.13895
-0.73263
-0.41737
-0.170244
0.0246738
0.176451
0.285914
0.344938
0.335574
0.242701
21.4975
20.5863
18.3423
14.6452
9.30389
1.94661
-7.93584
-20.9136
-37.4844
-57.7687
-80.8485
-103.808
-121.291
-126.884
-117.98
-99.1624
-78.3312
-60.2626
-45.9884
-34.8908
-26.2966
-19.7591
-14.8315
-11.0717
-8.21413
-6.06448
-4.44532
-3.21401
-2.27126
-1.54777
-0.991599
-0.56229
-0.230159
0.025261
0.217058
0.351443
0.424815
0.425467
0.341406
0.192437
52.141
52.7059
54.1426
56.4649
59.6512
63.7109
68.6318
74.2834
80.3319
86.1438
90.7095
92.686
90.7771
84.545
75.027
64.1159
53.3053
43.3715
34.711
27.4727
21.5959
16.918
13.2738
10.506
8.38943
6.73077
5.42036
4.39434
3.60035
2.98952
2.52119
2.15574
1.86819
1.63885
1.44699
1.27206
1.09122
0.87692
0.595158
0.206114
51.2201
51.7553
53.133
55.3779
58.4907
62.5158
67.4947
73.3732
79.8985
86.4815
92.0194
94.7355
92.6477
85.1953
74.3231
62.6266
51.4401
41.3416
32.7143
25.6455
19.9572
15.4298
11.946
9.40617
7.5047
6.01458
4.83273
3.89955
3.16536
2.59003
2.14623
1.79329
1.51235
1.28633
1.10224
0.945977
0.798216
0.635689
0.426229
0.12991
49.4138
49.8883
51.1385
53.2064
56.1321
60.0217
65.019
71.23
78.6051
86.7417
94.4643
99.0184
96.2092
85.4006
71.705
58.7647
46.908
36.406
27.7378
20.8556
15.3599
11.1
8.43693
6.55889
4.98928
3.71593
2.75447
2.05081
1.53499
1.15919
0.882657
0.68993
0.559523
0.473885
0.423377
0.406257
0.41717
0.440563
0.434621
0.277047
46.7979
47.1771
48.2127
49.9673
52.5164
56.0374
60.8019
67.15
75.428
85.8382
96.9243
105.531
100.878
82.9666
65.9326
52.4232
40.0552
29.6449
21.5825
15.1679
8.82069
2.63831
2.66225
2.9891
2.32481
1.3821
0.557114
-0.102839
-0.625327
-1.0242
-1.31659
-1.51745
-1.64417
-1.71203
-1.7187
-1.64731
-1.48234
-1.20315
-0.807593
-0.375239
43.501
43.7459
44.4635
45.728
47.6247
50.3732
54.3136
59.9579
67.99
87.2582
107.377
128.133
123.956
84.2274
61.8936
47.9416
31.4609
19.2927
11.4053
6.16151
1.00081
-12.9795
-10.6622
-7.78817
-6.52478
-5.94063
-5.55674
-5.29341
-5.13896
-5.03493
-4.94708
-4.86194
-4.76776
-4.65771
-4.50354
-4.25667
-3.85744
-3.2134
-2.23736
-1.0218
39.7028
39.778
40.0742
40.6524
41.5884
43.0463
45.3159
48.8777
54.5338
75.1843
101.355
146.344
167.341
27.7045
24.1
6.17257
-4.34936
-8.98848
-11.9809
-13.9613
-19.6099
-11.8977
-13.9304
-16.2826
-17.0992
-17.2233
-17.1305
-16.9327
-16.6444
-16.3057
-15.9339
-15.513
-15.0697
-14.6021
-14.0511
-13.367
-12.4495
-11.0768
-8.82839
-5.00951
35.6522
35.5275
35.3222
35.0637
34.7662
34.463
34.2114
34.0861
34.1414
47.5394
58.88
128.823
168.365
-710.136
-136.712
-95.7023
-68.7001
-61.1602
-55.7004
-51.8749
-67.5974
-39.5571
-37.5406
-35.6499
-33.7964
-31.9134
-30.2165
-28.7423
-27.4401
-26.2832
-25.2464
-24.3026
-23.4242
-22.5516
-21.6514
-20.6607
-19.4631
-17.7767
-14.9831
-9.49399
31.6342
31.3023
30.5652
29.4076
27.7686
25.5147
22.4022
17.9724
11.2972
9.96922
-10.9044
-78.545
-301.088
-255.668
-110.079
-62.5766
-40.4985
-29.4905
-23.1549
-18.2495
-10.1076
5.11062
2.16881
-1.57421
-3.23044
-4.01069
-4.51315
-4.86447
-5.0963
-5.2417
-5.32679
-5.37163
-5.36861
-5.29333
-5.13094
-4.85888
-4.41103
-3.66311
-2.45444
-0.824099
27.9524
27.4292
26.1952
24.1994
21.3219
17.3078
11.7218
3.81522
-7.80177
-25.9412
-48.9559
-102.203
-172.858
-186.902
-131.848
-85.4127
-57.6917
-40.1674
-28.8916
-20.8549
-10.5776
-1.47797
-2.45636
-3.95186
-4.03617
-3.62585
-3.20729
-2.84369
-2.5243
-2.2486
-2.01549
-1.81615
-1.64334
-1.48406
-1.30813
-1.09482
-0.819564
-0.448503
0.0127557
0.391903
24.8927
24.2121
22.5746
19.9033
16.054
10.728
3.45837
-6.45184
-20.003
-38.4754
-62.6249
-90.6748
-115.263
-121.816
-106.16
-82.0632
-60.9201
-45.1252
-33.4574
-24.4332
-16.8949
-11.8037
-8.97338
-6.94068
-5.13267
-3.6497
-2.53474
-1.70977
-1.09239
-0.628211
-0.278784
-0.0131305
0.190119
0.352742
0.496703
0.632836
0.765213
0.884946
0.942016
0.77406
22.7028
21.9188
20.0026
16.8712
12.3827
6.24453
-1.9617
-12.7468
-26.6394
-43.9813
-64.3836
-85.8219
-102.895
-108.344
-99.6116
-82.5102
-64.7384
-49.8956
-38.2099
-28.9744
-21.6034
-15.9069
-11.5597
-8.36545
-5.97971
-4.17196
-2.80524
-1.77049
-0.981994
-0.378145
0.084774
0.439606
0.710761
0.916909
1.071
1.17909
1.2366
1.22335
1.09093
0.735027
21.5595
20.7228
18.6652
15.3003
10.4954
3.97491
-4.63106
-15.7089
-29.5428
-46.0709
-64.4398
-82.4117
-96.038
-100.875
-95.1124
-81.6978
-66.0263
-51.7689
-40.0355
-30.6092
-23.0824
-17.1756
-12.6534
-9.2583
-6.68667
-4.70593
-3.17657
-2.00084
-1.09919
-0.408156
0.120367
0.522716
0.826404
1.05076
1.20757
1.30163
1.32591
1.26034
1.06535
0.673499
50.1947
50.6218
51.7203
53.4887
55.8814
58.8714
62.4064
66.3399
70.3756
74.0181
76.5528
77.1107
74.9278
69.8184
62.4714
54.0792
45.6281
37.7008
30.6397
24.6251
19.6784
15.7207
12.6355
10.2694
8.42455
6.94875
5.76338
4.82088
4.0784
3.49476
3.03521
2.66944
2.37281
2.12424
1.90424
1.69253
1.46391
1.1875
0.824233
0.324989
49.3201
49.7187
50.7583
52.4474
54.751
57.6649
61.1669
65.1507
69.3564
73.296
76.1838
76.9399
74.5209
68.7629
60.8169
52.1744
43.6921
35.8076
28.8731
23.066
18.3555
14.6364
11.8107
9.68189
8.01085
6.65894
5.56633
4.68843
3.98213
3.41146
2.9505
2.57564
2.26649
2.00577
1.77741
1.56565
1.34831
1.09496
0.762968
0.298104
47.6083
47.9495
48.8651
50.3786
52.4784
55.1956
58.5636
62.5558
66.9973
71.4436
74.9934
76.0913
72.8835
65.414
56.317
47.5379
39.2437
31.5203
24.8293
19.3676
15.0375
11.7893
9.63143
7.95168
6.45169
5.18154
4.18806
3.4327
2.85729
2.41663
2.07888
1.82068
1.62394
1.4731
1.35545
1.26055
1.17229
1.06081
0.866453
0.462453
45.1382
45.3926
46.1108
47.3263
49.0584
51.3715
54.3635
58.1122
62.5926
67.5029
71.9183
73.5447
68.7201
58.0752
47.831
39.6849