/*--------------------------------*- C++ -*----------------------------------*\
| =========                 |                                                 |
| \\      /  F ield         | OpenFOAM: The Open Source CFD Toolbox           |
|  \\    /   O peration     | Version:  2306                                  |
|   \\  /    A nd           | Website:  www.openfoam.com                      |
|    \\/     M anipulation  |                                                 |
\*---------------------------------------------------------------------------*/
FoamFile
{
    version     2.0;
    format      ascii;
    arch        "LSB;label=32;scalar=64";
    class       surfaceScalarField;
    location    "1.35";
    object      phi;
}
// * * * * * * * * * * * * * * * * * * * * * * * * * * * * * * * * * * * * * //

dimensions      [0 3 -1 0 0 0 0];

oriented        oriented;

internalField   nonuniform List<scalar> 
338621
(
24.9952
0.00228212
0.0011974
24.9877
0.00493222
0.0025166
24.9757
0.00789311
0.00404552
24.9586
0.0110224
0.00592621
24.9356
0.0144316
0.00846967
24.9031
0.0205363
0.011841
24.8567
0.0301286
0.0161585
24.7939
0.0408394
0.0217327
24.7322
0.0327778
0.0287956
24.6892
0.00575099
0.0372444
24.6607
-0.0184403
0.0469081
24.5864
0.0171435
0.0572208
24.6146
-0.0958307
0.0677538
24.7449
-0.207725
0.0775532
24.7869
-0.127956
0.0860522
24.8196
-0.125703
0.0929882
24.8487
-0.127719
0.0984804
24.8722
-0.126591
0.103007
24.8917
-0.126232
0.1066
24.9181
-0.136018
0.109496
24.9476
-0.141157
0.111608
24.9699
-0.135656
0.113303
24.9869
-0.131705
0.114677
25.0008
-0.12953
0.115616
25.0126
-0.12808
0.116303
25.0225
-0.126711
0.116796
25.0312
-0.125752
0.117073
25.0386
-0.124661
0.117171
25.045
-0.123615
0.117229
25.0507
-0.1229
0.117255
25.0557
-0.122289
0.11726
25.0603
-0.12182
0.117235
25.0644
-0.121436
0.117299
25.0681
-0.121151
0.117432
25.0715
-0.12099
0.11758
25.075
-0.12126
0.11776
25.0786
-0.121458
0.117907
25.0823
-0.121769
0.118075
25.0863
-0.12223
0.118198
-0.123094
0.118006
24.9951
0.00455983
0.00117245
24.9875
0.0100092
0.00243717
24.9751
0.0163116
0.00395317
24.9579
0.0222866
0.00582019
24.9348
0.0290615
0.00834354
24.9055
0.0381153
0.0116104
24.8701
0.0494605
0.0159785
24.8246
0.0645686
0.0216454
24.7602
0.0681535
0.028904
24.6855
0.0425566
0.03782
24.6424
-0.0236853
0.0483626
24.6287
-0.0286797
0.0596685
24.6669
-0.205611
0.0717863
24.7509
-0.374406
0.0828453
24.8316
-0.30063
0.0920454
24.9005
-0.293926
0.0992927
24.9532
-0.285445
0.104916
24.9956
-0.278492
0.109403
25.0406
-0.284219
0.112938
25.0743
-0.285392
0.115596
25.0941
-0.278706
0.117642
25.108
-0.268774
0.119222
25.1173
-0.261571
0.120579
25.1245
-0.258299
0.121534
25.1299
-0.255686
0.122199
25.1341
-0.253569
0.122616
25.1369
-0.251423
0.122902
25.1392
-0.250049
0.123058
25.1413
-0.248889
0.123168
25.1428
-0.247654
0.123264
25.144
-0.246853
0.123366
25.1447
-0.246007
0.123491
25.1455
-0.245881
0.123669
25.1461
-0.245709
0.123886
25.1468
-0.245773
0.124122
25.1475
-0.246348
0.124403
25.1484
-0.246945
0.124614
25.1496
-0.247807
0.12484
25.1515
-0.249142
0.124955
-0.250039
0.124779
24.9954
0.00651446
0.00111675
24.9879
0.015175
0.00232742
24.9761
0.0243009
0.0037488
24.9583
0.0344103
0.00561222
24.9341
0.0450859
0.00805602
24.9031
0.0577282
0.0112824
24.8634
0.0733722
0.0156932
24.8144
0.091954
0.0214876
24.7456
0.107749
0.0291667
24.6474
0.101587
0.0390735
24.5702
0.00606931
0.0513133
-0.00523409
0.00588417
-0.00453974
24.6662
-0.0379436
0.0655729
-0.0576594
-0.0373085
-0.0571167
24.558
-0.0104449
0.0791712
-0.094813
0.0221202
-0.0932216
24.7309
-0.181862
0.0920373
-0.123785
-0.211641
-0.121771
24.825
-0.129064
0.101711
-0.121843
-0.126574
-0.118934
24.8866
-0.118535
0.108915
-0.116699
-0.115449
-0.113896
24.9412
-0.114914
0.114403
-0.115213
-0.112374
-0.112112
25.0074
-0.11761
0.118726
-0.116617
-0.115059
-0.114223
25.0504
-0.11414
0.122027
-0.112757
-0.111812
-0.110643
25.0759
-0.110386
0.124326
-0.109338
-0.108203
-0.107236
25.0937
-0.422602
0.126106
25.107
-0.40969
0.127528
25.1151
-0.398457
0.128794
25.1212
-0.394189
0.129807
25.126
-0.391087
0.130583
25.1294
-0.388087
0.131093
25.1316
-0.384975
0.131391
25.1333
-0.383289
0.131555
25.1339
-0.381174
0.131655
25.1346
-0.380111
0.13175
25.1347
-0.378844
0.131872
25.1348
-0.378135
0.132043
25.1345
-0.377752
0.132217
25.1341
-0.377921
0.13253
25.1335
-0.37791
0.132792
25.1328
-0.378742
0.133102
25.1324
-0.379937
0.133319
25.1324
-0.381289
0.133512
25.1326
-0.382881
0.133565
-0.384508
0.13334
24.9957
0.00875538
0.00103327
24.9891
0.0196046
0.0021609
24.9775
0.0324075
0.00346441
24.9608
0.0457918
0.00524295
24.9364
0.0618454
0.00753502
24.9022
0.0811945
0.0106458
24.8569
0.103657
0.0149346
24.799
0.129072
0.0207363
24.7324
0.145534
0.0287087
6.14186
0.0375898
0.0396042
0.0548799
0.0384517
0.0546013
6.16387
6.14116
6.16187
6.12418
0.0179323
0.00582382
-6.11094
6.09861
-0.0333568
0.00775737
-6.10236
6.12364
-0.0414709
0.00977309
-6.11581
6.14265
-0.220532
0.0118532
-6.16148
6.17591
-0.156887
0.0134049
-6.18947
6.20044
-0.143904
0.0143927
-6.21206
6.22665
-0.144656
0.0151511
-6.23886
6.24629
-0.140785
0.0157474
-6.25225
6.25756
-0.13561
0.0161615
-6.26201
6.26597
-0.130801
0.0164492
25.105
-0.143965
0.136906
-0.144575
-0.142956
-0.144923
-6.26944
-6.27424
-6.26986
-6.27448
25.1104
-0.554028
0.138963
25.1123
-0.540001
0.139581
25.1144
-0.53612
0.139886
25.1145
-0.531525
0.14033
25.113
-0.527368
0.140747
25.1113
-0.52434
0.141076
25.1085
-0.521824
0.141352
25.1049
-0.519206
0.141613
25.1007
-0.517749
0.141887
25.0961
-0.516438
0.142178
25.0909
-0.515462
0.14248
25.0852
-0.514726
0.142733
25.0792
-0.514975
0.143071
25.0729
-0.514949
0.143266
25.0662
-0.515474
0.143426
25.0594
-0.516528
0.143405
25.0526
-0.517669
0.143211
25.0469
-0.519964
0.142818
-0.521355
0.142053
24.9973
0.00932603
0.000920256
24.9915
0.0234961
0.00192955
24.9818
0.0389335
0.00308957
24.9665
0.0563665
0.00468312
24.9438
0.0777436
0.00673267
24.9107
0.10479
0.00952401
24.861
0.139874
0.0133702
24.7871
0.184183
0.018761
6.17171
0.234469
0.0262254
6.16439
6.17147
6.16438
6.1556
0.0497443
0.00394996
6.12995
0.00564769
-6.15804
0.0203379
0.0120687
0.0118593
0.0205098
-0.0423391
-6.07692
6.04228
0.00782985
-0.00185303
0.00438503
0.00402109
-0.0017047
0.0219834
-6.04137
6.05928
0.0103281
0.0292664
-0.0400349
-0.0401673
-0.0190306
0.0417811
-6.11144
6.13668
0.0132228
-0.0522585
-0.066909
-0.104753
-0.0527334
0.23823
-6.16941
6.18187
0.0149829
-0.0513555
-0.0552219
-0.0544802
-0.0518059
0.185437
-6.19406
6.20795
0.015959
-0.0517816
-0.0511301
-0.0509189
-0.051973
0.175945
-6.22195
6.23416
0.0165876
-0.0499625
-0.0500334
-0.0498111
-0.0501965
0.17119
-6.24415
6.25171
0.0170082
-0.0472171
-0.0473078
-0.0470229
-0.0475114
0.164494
-6.25832
6.26306
0.0172512
-0.0445206
-0.0449954
-0.0446341
-0.0449091
0.157081
-6.26722
6.26938
0.0173451
-0.0421127
-0.0429277
-0.0424583
-0.0426147
0.15062
-6.27246
6.2738
-0.162654
0.0173572
25.047
-0.663776
0.145544
-6.27319
-6.26767
-6.27422
-6.26763
25.0191
-0.657505
0.145414
24.9905
-0.651329
0.143815
24.9624
-0.64548
0.142042
24.936
-0.641141
0.140101
24.9111
-0.637391
0.138025
24.8872
-0.633833
0.135918
24.8648
-0.630693
0.13389
24.8429
-0.627852
0.132001
24.8217
-0.625596
0.130284
24.8014
-0.623847
0.128731
24.7818
-0.622394
0.12728
24.7623
-0.621451
0.125997
24.7436
-0.620969
0.124714
24.7254
-0.620734
0.123418
24.7079
-0.621043
0.122009
24.6917
-0.621884
0.1204
24.677
-0.623808
0.118545
-0.627625
0.116278
24.9999
0.00792694
0.000778611
24.9966
0.0251279
0.00163948
24.9891
0.0437606
0.00262916
24.9775
0.0641012
0.00390438
24.96
0.0895923
0.00559908
24.9331
0.123796
0.00784357
24.8903
0.17181
0.0108702
24.8183
0.241011
0.0151377
6.17125
0.34796
0.0209463
6.1708
6.17126
6.17064
-0.0657008
6.14566
0.0881311
0.00317059
-0.0198244
-1.52774
1.52258
0.0243764
0.000606391
-0.0196868
-1.50427
1.49207
0.0310928
0.000791136
-1.46827
0.0520253
1.47806
-0.0630298
0.00121598
-1.52927
0.0847971
1.53784
-0.0948083
0.00143838
-1.536
0.0624212
-0.0665153
0.00194919
1.53814
-1.54776
0.0608954
-0.0657123
0.00217371
1.55041
0.0583382
-1.55638
1.55791
-0.0619946
0.00212726
0.0540209
-1.56103
1.56162
-0.0566859
0.00207865
0.050818
-1.56229
1.56235
-0.052998
0.00212022
0.0479738
-1.56156
1.56111
-0.049755
0.00223172
-1.55499
0.176305
6.16259
-0.166722
0.0165102
-1.53845
-1.55587
-1.53937
23.8089
-0.763431
0.0783542
-6.10104
-5.7936
-6.09774
-5.79516
23.8233
-0.745486
0.0736012
23.8369
-0.734469
0.0694623
23.8515
-0.725598
0.0655481
23.8665
-0.718138
0.0620141
23.8816
-0.711419
0.0589296
23.8967
-0.705241
0.0562872
23.9115
-0.699558
0.0540445
23.926
-0.694446
0.0521387
23.9398
-0.689927
0.0504957
23.9529
-0.685979
0.0490348
23.9656
-0.682704
0.0476543
23.9777
-0.679924
0.0463477
23.9893
-0.677566
0.044992
24.0008
-0.675781
0.0435297
24.0122
-0.674307
0.0418818
24.0236
-0.673177
0.039937
24.0345
-0.672338
0.0375585
-0.671252
0.0346491
25.003
0.00405862
0.000615372
25.0036
0.0232465
0.0012989
25.0007
0.044513
0.00207988
24.9951
0.0667417
0.0029976
24.9864
0.0941252
0.00417346
24.973
0.131533
0.00569651
24.9535
0.183732
0.00758088
24.9226
0.261838
0.00998784
6.21359
0.387936
0.0128377
6.22162
6.21329
6.22132
-0.10639
6.19826
0.119851
0.0018664
-0.0394512
-1.54218
1.53604
0.0452624
0.000330892
-0.0824225
-1.50654
1.48794
0.100594
0.000428328
0.00440022
-0.0746696
0.0748534
-0.0046239
3.98533e-05
-0.0213885
0.000451556
0.0209004
2.46923e-06
3.41642e-05
-0.189868
0.00622702
-0.0179866
-0.00275516
0.204383
-1.18032
0.0576516
-0.0774014
-7.57179e-05
1.20015
0.0515648
-1.24184
1.25113
-0.0602742
-0.000585024
0.0500126
-1.28104
1.29132
-0.0588389
-0.00145768
0.0479457
-1.31911
1.32799
-0.0546032
-0.00221579
0.0474726
-1.3515
1.35978
-0.0530956
-0.00265936
-1.39945
0.196955
5.81323
-0.215946
-0.0123842
-1.49497
-1.39165
-1.49579
24.1297
-0.68461
-0.117447
-5.8681
-6.1733
-5.87768
-6.172
24.1591
-0.659046
-0.115848
24.1847
-0.646464
-0.113591
24.2078
-0.636945
-0.111737
24.2284
-0.62857
-0.110216
24.2474
-0.621568
-0.10886
24.2657
-0.615842
-0.107657
24.2837
-0.611066
-0.106453
24.3016
-0.607166
-0.105207
24.3195
-0.604011
-0.10385
24.3374
-0.601498
-0.102378
24.3551
-0.599635
-0.100738
24.3725
-0.598257
-0.0990597
24.3895
-0.597256
-0.0973281
24.4059
-0.596473
-0.0957079
24.4219
-0.59601
-0.094337
24.4376
-0.595454
-0.0933406
24.4526
-0.594449
-0.0929243
-0.592051
-0.0932863
25.0047
-0.00085871
0.000473383
25.0099
0.0170465
0.000963163
25.0148
0.0381278
0.00149018
25.0188
0.0607514
0.00207183
25.0206
0.0895915
0.00268239
25.0257
0.123142
0.00337597
25.0378
0.167665
0.00399416
25.0638
0.231504
0.00432626
6.27442
0.332168
0.00399965
6.28215
6.27464
6.28432
-0.111823
6.28223
0.103592
0.000411671
-0.0446042
-1.57801
1.57972
0.042865
2.17388e-05
-0.0840475
-1.59829
1.61325
-9.24971e-05
0.0691769
-0.0259911
-1.71273
1.75162
-0.000772178
0.0564961
-0.0212344
-0.0261017
-0.0212895
0.101864
-1.71332
1.68323
-0.00148602
-0.070299
0.103507
-1.60948
-0.00206229
1.59902
-0.0909956
0.0792861
-1.58477
-0.00204437
1.58187
-0.0743483
0.0580695
-1.57718
1.57622
-0.0550589
-0.00204421
0.0585728
-1.57435
1.57252
-0.0547102
-0.00202838
0.0526836
-1.57203
1.57135
-0.050004
-0.00200385
0.0488577
-1.57032
1.5698
-0.0463598
-0.00196989
-1.56735
0.180151
6.26398
-0.160693
-0.0152395
-1.56687
-1.56705
-1.56694
25.0652
-0.550996
-0.127147
-6.26747
-6.26728
-6.26929
-6.26765
25.0659
-0.531836
-0.127932
25.0635
-0.516102
-0.127954
25.0608
-0.506259
-0.128
25.059
-0.498609
-0.128081
25.0579
-0.492457
-0.128036
25.0574
-0.487406
-0.127915
25.057
-0.483033
-0.127642
25.0571
-0.479974
-0.127271
25.0572
-0.477322
-0.126819
25.0571
-0.475089
-0.126373
25.0572
-0.473843
-0.125816
25.0571
-0.472801
-0.125364
25.0565
-0.471792
-0.124927
25.0563
-0.471544
-0.124663
25.0561
-0.471166
-0.124625
25.0561
-0.470635
-0.124871
25.0567
-0.46956
-0.125505
-0.468037
-0.126496
25.0056
-0.00582644
0.000287646
25.014
0.00809932
0.000621301
25.0268
0.0243407
0.00092398
25.038
0.0484183
0.00116873
25.0533
0.0731264
0.00130192
25.0766
0.0986545
0.00121587
25.1143
0.129249
0.000734372
25.1774
0.169078
-0.000616197
6.32034
0.230937
-0.00336325
6.31844
6.32456
6.31873
-0.0888383
6.33644
0.0734886
-0.000742383
-0.0332079
6.41297
0.0877723
-0.00172554
-0.0343696
-0.0333466
-0.0339612
-6.36413
-0.033247
6.51657
0.0755423
-0.00365561
-0.0259518
-0.0331685
-0.025933
-6.47016
-0.00706131
-6.54705
6.51318
-0.00602664
-0.00667612
0.0153348
-0.00737294
0.0456264
0.0457146
-6.53499
6.51329
-0.123483
-0.010268
0.0394462
0.0364566
0.0337975
0.0552783
-6.44902
6.41173
-0.177311
-0.0126025
0.0557156
0.0576388
0.0585427
0.0565764
-6.37208
6.34022
-0.175438
-0.0138424
0.0552971
0.0554451
0.0538282
0.0468465
-6.32228
6.31117
-0.157537
-0.0146703
0.0459228
0.0455835
0.0449768
0.0448782
-6.30247
6.29649
-0.156899
-0.0151641
0.044653
0.0443516
0.0441636
0.0419008
-6.29187
6.28628
-0.144357
-0.015372
0.0414018
0.0413165
0.0406957
0.0389793
-6.28177
6.27609
-0.132491
-0.0154237
0.0385059
0.0383635
0.0377482
0.144015
-6.27428
6.2722
-0.126441
-0.0154897
25.066
-0.411353
-0.128426
-6.26947
-6.26952
-6.26953
-6.26872
25.0575
-0.394926
-0.128423
25.0534
-0.38399
-0.128041
25.051
-0.376091
-0.127704
25.0499
-0.370123
-0.12736
25.0495
-0.365158
-0.126956
25.0498
-0.361211
-0.12651
25.0508
-0.357932
-0.126045
25.0517
-0.355277
-0.125576
25.0526
-0.353159
-0.12511
25.0535
-0.351294
-0.12469
25.0543
-0.350354
-0.124266
25.0546
-0.349248
-0.123852
25.0553
-0.348997
-0.12355
25.0558
-0.34861
-0.123373
25.0561
-0.348123
-0.123342
25.0571
-0.348081
-0.123532
25.0592
-0.347732
-0.124017
-0.34745
-0.124839
25.0062
-0.0107995
0.00020045
25.0159
-0.00197117
0.000380084
25.0247
0.0151653
0.000476419
25.041
0.0316132
0.000467607
25.0675
0.0465496
0.000195746
25.1008
0.0659679
-0.000474171
25.148
0.0838631
-0.00178428
25.2142
0.107233
-0.00421781
25.3229
0.130853
-0.00847691
25.4278
0.144571
-0.0155568
-0.0612781
-0.0568917
-0.058486
-0.0570905
25.5757
0.13241
-0.0264576
-0.0606543
-0.0640783
-0.0616401
-0.0673694
25.71
0.0552588
-0.0418142
-0.041946
-0.0280822
-0.0457526
-0.0321241
25.5889
-0.155239
-0.0599682
0.0212808
0.124126
0.0194271
0.171152
25.498
-0.236196
-0.0787251
0.0832618
0.116821
0.0983604
0.107017
25.4308
-0.247041
-0.0936628
0.0828513
0.148261
0.0308283
0.145861
25.3459
-0.351882
-0.104436
0.135309
0.138331
0.132897
0.134802
25.2618
-0.322688
-0.111456
0.12932
0.133068
0.126292
0.129695
25.195
-0.333713
-0.116066
0.132603
0.129677
0.128866
0.12559
25.1507
-0.313381
-0.119021
0.122728
0.119651
0.119045
0.115261
25.1258
-0.294813
-0.120915
0.112229
0.112055
0.107353
0.109008
25.1056
-0.280486
-0.122194
0.107621
0.106948
0.104807
0.103531
25.0877
-0.270429
-0.12309
25.0771
-0.260813
-0.123481
25.0705
-0.253681
-0.123674
25.066
-0.247815
-0.123811
25.0629
-0.243258
-0.123751
25.0613
-0.23997
-0.123578
25.0599
-0.236513
-0.123311
25.0593
-0.234294
-0.122987
25.0587
-0.232016
-0.122646
25.0585
-0.230631
-0.122316
25.0586
-0.229364
-0.122036
25.0582
-0.22814
-0.121838
25.0583
-0.227665
-0.121662
25.0578
-0.226904
-0.121672
25.0576
-0.226547
-0.121795
25.058
-0.226483
-0.12208
25.0589
-0.226402
-0.122561
25.0599
-0.225448
-0.123271
-0.224778
-0.124214
25.0065
-0.0155232
0.000113886
25.0094
-0.00510267
0.00020625
25.017
0.00751427
0.00017351
25.0363
0.0123252
-8.31765e-07
25.0616
0.021906
-0.000513355
25.0907
0.0385203
-0.0015621
25.1384
0.0397089
-0.00337014
25.1993
0.0527858
-0.00635092
25.2782
0.0632657
-0.0111759
25.3739
0.0674461
-0.0184513
25.4809
0.0541645
-0.0287464
25.5614
0.0169388
-0.0424034
25.5398
-0.0757812
-0.05812
25.5267
-0.149442
-0.0738342
25.405
-0.038225
-0.0872299
25.323
-0.172232
-0.0976698
25.2729
-0.167588
-0.104911
25.211
-0.1616
-0.110123
25.1655
-0.154071
-0.113661
25.1328
-0.145982
-0.116105
25.1088
-0.138605
-0.117798
25.0901
-0.132943
-0.118852
25.077
-0.128139
-0.11953
25.0677
-0.124532
-0.119838
25.0614
-0.121553
-0.119917
25.0572
-0.119358
-0.119688
25.0539
-0.117334
-0.119333
25.0521
-0.115874
-0.118888
25.0511
-0.114916
-0.118326
25.0505
-0.113678
-0.117767
25.0503
-0.113145
-0.117223
25.0499
-0.1123
-0.116738
25.0502
-0.112101
-0.1163
25.0501
-0.111593
-0.115977
25.0506
-0.111586
-0.115796
25.051
-0.1112
-0.115741
25.0517
-0.111358
-0.115835
25.0527
-0.111288
-0.116109
25.0549
-0.111017
-0.116606
-0.111681
-0.117375
24.9868
9.0188e-05
24.9815
0.000175501
24.989
7.73198e-05
25.0016
-0.000108843
25.0244
-0.000753041
25.0649
-0.00190196
25.1087
-0.00385689
25.1687
-0.00703691
25.2441
-0.0120114
25.3308
-0.0191601
25.4139
-0.0288632
25.4719
-0.0412261
25.4512
-0.0551765
25.3708
-0.0691958
25.4141
-0.0816398
25.334
-0.0920242
25.266
-0.0995068
25.2093
-0.104796
25.1639
-0.108534
25.1291
-0.111166
25.1036
-0.113008
25.0849
-0.114192
25.0717
-0.114893
25.0623
-0.115166
25.056
-0.115228
25.0517
-0.115027
25.049
-0.114683
25.0475
-0.114299
25.0463
-0.11375
25.0459
-0.113234
25.0455
-0.112771
25.0455
-0.112327
25.0454
-0.111951
25.0455
-0.11171
25.0456
-0.11166
25.0461
-0.111731
25.0467
-0.111942
25.0477
-0.112325
25.0496
-0.112917
-0.113775
24.9959
0.00122879
0.00237016
24.9893
0.00401008
0.00489539
24.9787
0.00660417
0.00787563
24.963
0.00975997
0.0116138
24.942
0.0126336
0.0164616
24.9131
0.0174252
0.0228667
24.8718
0.0258217
0.0312562
24.815
0.036007
0.0420718
24.7599
0.0279348
0.0556439
24.7239
0.000753813
0.0722921
24.6987
-0.0192432
0.0912696
24.6358
0.00847491
0.111925
24.6638
-0.0925592
0.132809
24.781
-0.191819
0.15254
24.8132
-0.115461
0.169457
24.8368
-0.113777
0.18305
24.8593
-0.118033
0.193738
24.8778
-0.118071
0.202269
24.8939
-0.118869
0.209025
24.9208
-0.131954
0.214314
24.9479
-0.134005
0.218274
24.9692
-0.129448
0.221309
24.9863
-0.126111
0.223635
25.0006
-0.124205
0.225416
25.0126
-0.122528
0.226765
25.0232
-0.121506
0.227753
25.0321
-0.120333
0.228442
25.0396
-0.119278
0.228887
25.0462
-0.118567
0.229183
25.052
-0.11794
0.229401
25.0568
-0.117136
0.229568
25.0608
-0.116413
0.229732
25.0644
-0.116291
0.229901
25.068
-0.116257
0.230172
25.0709
-0.115828
0.230447
25.0739
-0.116075
0.230815
25.077
-0.116184
0.231078
25.0802
-0.116493
0.231369
25.0841
-0.117173
0.231439
-0.117808
0.230707
24.9959
0.00255142
0.00231092
24.9893
0.00808418
0.00478476
24.9781
0.0138529
0.0077177
24.9624
0.0196519
0.0114174
24.9409
0.0259031
0.0162358
24.9137
0.0331725
0.0226434
24.8812
0.0428598
0.0311029
24.8392
0.0571348
0.0421727
24.7769
0.062444
0.0563814
24.7015
0.0396957
0.0741447
24.6583
-0.0227968
0.0951218
24.596
0.0124618
0.118386
24.631
-0.197172
0.141997
24.7632
-0.404704
0.164012
24.8441
-0.286266
0.182173
24.9118
-0.278677
0.196371
24.9615
-0.27061
0.207434
25.0013
-0.264761
0.216041
25.0461
-0.273786
0.222746
25.0782
-0.276363
0.227754
25.0971
-0.266825
0.231412
25.1106
-0.257957
0.234134
25.1197
-0.250984
0.236263
25.1267
-0.247625
0.237952
25.1324
-0.245362
0.239294
25.1364
-0.243232
0.240341
25.1391
-0.24141
0.241168
25.1417
-0.240639
0.241832
25.1435
-0.239574
0.242388
25.1446
-0.238637
0.242871
25.1456
-0.238062
0.24331
25.1465
-0.237598
0.243726
25.1467
-0.23702
0.244187
25.1468
-0.237084
0.244645
25.1473
-0.237343
0.245121
25.1474
-0.237331
0.245588
25.1479
-0.23809
0.246
25.1491
-0.23913
0.246308
25.1503
-0.239916
0.246429
-0.241317
0.245686
24.9959
0.00396705
0.00219962
24.9895
0.0121492
0.00457009
24.9784
0.0211292
0.00739855
24.962
0.0303845
0.0109894
24.9394
0.0405687
0.0157085
24.9099
0.0516956
0.0220576
24.8723
0.0652154
0.0306007
24.8262
0.0823237
0.0420614
24.7609
0.0993551
0.0572913
24.6661
0.0963025
0.0770779
24.5879
0.00564626
0.1017
-0.00396079
0.00569441
-0.00246188
24.7212
-0.0370092
0.129794
-0.0570607
-0.0356029
-0.0547665
24.5792
0.0230498
0.158105
-0.0931127
0.0259708
-0.0891319
24.7424
-0.2127
0.184196
-0.121804
-0.20838
-0.116452
24.8336
-0.126537
0.203582
-0.11881
-0.121188
-0.112568
24.8928
-0.115624
0.217835
-0.114068
-0.109914
-0.107635
24.9456
-0.112836
0.228821
-0.112493
-0.106768
-0.106209
25.0103
-0.115484
0.237264
-0.114743
-0.109484
-0.108687
25.0527
-0.112598
0.243556
-0.111651
-0.106947
-0.106644
25.0791
-0.109694
0.247861
-0.108374
-0.104943
-0.103347
25.0979
-0.410017
0.250469
25.1106
-0.395425
0.252292
25.1187
-0.384143
0.253826
25.1245
-0.379506
0.255913
25.1287
-0.37654
0.25756
25.1314
-0.374114
0.259178
25.1335
-0.372162
0.26008
25.1344
-0.371059
0.261085
25.1347
-0.370283
0.261977
25.1355
-0.370455
0.262794
25.1352
-0.369478
0.263555
25.135
-0.369615
0.264285
25.1352
-0.369763
0.264753
25.1346
-0.36967
0.265705
25.1338
-0.370114
0.266367
25.1333
-0.370708
0.266971
25.1328
-0.371725
0.26745
25.1325
-0.373011
0.267729
25.133
-0.374584
0.267752
-0.376165
0.266853
24.9968
0.00510669
0.00203336
24.9906
0.0161731
0.00423698
24.9797
0.0284838
0.00687804
24.9635
0.0413555
0.010251
24.9407
0.05596
0.0147272
24.908
0.074037
0.0208228
24.8636
0.0950694
0.029229
24.806
0.119654
0.0408272
24.738
0.138837
0.0568971
6.14335
0.0377476
0.0791006
0.0531023
0.0376361
0.0529648
6.16299
6.14394
6.16278
-0.0115378
6.12595
0.0170851
0.0174906
-0.0154762
-6.1139
6.10182
-0.0327825
0.023395
-0.0196027
-6.10571
6.09817
0.0206915
0.0296205
-0.0237372
-6.1136
6.14568
-0.25674
0.035811
-0.0268252
-6.16403
6.17812
-0.154137
0.040385
-0.0288711
-6.19153
6.20245
-0.14108
0.0433913
-0.0303728
-6.21351
6.22793
-0.142598
0.0456773
-0.0315316
-6.24079
6.24814
-0.138792
0.0474671
-0.0323713
-6.25405
6.25941
-0.134311
0.0487284
-0.0329365
-6.26323
6.26733
-0.130427
0.0495803
25.1103
-0.143233
0.27559
-0.143475
-0.141194
-0.138955
-6.27123
-6.27541
-6.27058
-6.27482
25.1155
-0.536786
0.275244
25.1172
-0.521816
0.275573
25.1181
-0.518472
0.277968
25.1172
-0.51559
0.280241
25.1146
-0.51352
0.282731
25.112
-0.512993
0.284558
25.1086
-0.512825
0.286458
25.1047
-0.512919
0.288171
25.1
-0.513589
0.289703
25.0954
-0.513728
0.291065
25.0902
-0.514267
0.292271
25.0845
-0.514373
0.293053
25.0786
-0.514887
0.294207
25.0723
-0.515368
0.294842
25.0659
-0.516232
0.295362
25.0589
-0.516781
0.295477
25.052
-0.518133
0.295189
25.0463
-0.520417
0.294353
-0.521934
0.292282
24.9984
0.00471245
0.00180827
24.9933
0.0193596
0.00377411
24.9837
0.0348487
0.00612986
24.9691
0.0513855
0.00913967
24.9471
0.0714192
0.0131481
24.9151
0.0969983
0.0183902
24.8667
0.130432
0.0263297
24.7944
0.173513
0.0371502
6.17384
0.224347
0.0526963
6.16673
6.1746
6.16712
-0.00782834
6.15863
0.0488533
0.0119172
-0.0112468
6.13261
0.0171179
-6.16129
0.0198543
0.0113618
0.0200156
0.0111432
-0.039592
-0.0156672
-6.07977
6.04621
0.0239258
-0.00194795
0.0034195
-0.00216458
0.00353605
0.0226058
-0.0208283
-6.04438
6.05792
0.0318114
0.0522928
-0.0403995
0.0516907
-0.039946
-0.0479238
-0.0263165
-6.09843
6.1397
0.0398272
-0.0512578
-0.129331
-0.0520294
-0.128688
0.306739
-0.0296021
-6.17077
6.18241
0.0443934
-0.0501954
-0.0539904
-0.0509885
-0.0532092
0.182047
-0.0313764
-6.196
6.21019
0.0469021
-0.0507617
-0.050712
-0.0515057
-0.0499978
0.173208
-0.0326329
-6.22403
6.23611
0.0487887
-0.0489372
-0.0495885
-0.0497187
-0.048845
0.168788
-0.0336037
-6.24599
6.25351
0.0502072
-0.0460471
-0.04694
-0.0471796
-0.0460862
0.162129
-0.0342819
-6.26028
6.26485
0.0511312
-0.043627
-0.0447821
-0.0446948
-0.043762
0.155494
-0.0347139
-6.26909
6.27125
0.0516492
-0.0414857
-0.0428308
-0.0424844
-0.0416323
0.149388
-6.27364
-0.0351399
6.27577
-0.162467
0.0522707
25.0652
-0.629993
0.274763
-6.27756
-6.27175
-6.27779
-6.274
25.0374
-0.620722
0.272157
25.0066
-0.614938
0.271116
24.975
-0.611858
0.269848
24.9449
-0.612179
0.268941
24.9157
-0.61435
0.268551
24.8883
-0.617323
0.267842
24.8625
-0.620729
0.267486
24.8378
-0.624079
0.267158
24.8148
-0.627198
0.266783
24.7932
-0.629966
0.266063
24.7726
-0.632239
0.265688
24.7529
-0.633919
0.264774
24.7341
-0.635486
0.263582
24.7159
-0.636637
0.26203
24.6989
-0.637722
0.259946
24.683
-0.638993
0.257157
24.6687
-0.641076
0.253514
-0.64488
0.248551
25.002
0.00120527
0.00154278
24.9997
0.0200603
0.00319572
24.9919
0.0399684
0.00516384
24.9799
0.0596121
0.00764881
24.9625
0.0834481
0.01092
24.9367
0.115712
0.0148593
24.8947
0.16169
0.0215261
24.8241
0.229149
0.0301688
6.17321
0.335289
0.0428173
6.17221
6.17364
6.17234
-0.00621947
-0.0637136
6.14786
0.0856506
0.00967053
-0.00205696
-0.0191458
-1.52824
1.52302
0.0237155
0.00272027
-0.00309182
-0.0185617
-1.5046
1.49198
0.0303863
0.00392572
-0.00455584
-1.46903
0.0523405
1.47889
-0.0633665
0.00574992
-0.00643084
-1.52832
0.153913
1.53982
-0.166979
0.00802551
-0.00777412
-1.53678
0.0605277
-0.063884
1.53886
0.00907148
-1.54858
-0.00804912
0.0596829
-0.0639664
0.00946795
1.55145
-0.00813777
0.0572675
-1.55734
1.55883
-0.0605601
0.00994149
-0.00833577
0.0533599
-1.56181
1.56234
-0.0561217
0.0105683
-0.00860296
0.0505405
-1.56283
1.56283
-0.0530734
0.0111455
-0.00888306
0.0478557
-1.5619
1.56138
-0.0499949
0.0115464
-1.55512
-0.0356559
0.174556
6.16615
-0.165267
0.050656
-1.53707
-1.55687
-1.54136
23.8659
-0.725996
0.143532
-6.10758
-5.79422
-6.12189
-5.81136
23.8784
-0.700887
0.141365
23.8864
-0.691918
0.138384
23.8932
-0.686874
0.133848
23.8992
-0.685224
0.129038
23.905
-0.685766
0.124561
23.9117
-0.687601
0.119848
23.9194
-0.690057
0.115708
23.9281
-0.69268
0.111959
23.9379
-0.695084
0.108581
23.9488
-0.697048
0.105285
23.9601
-0.698565
0.102698
23.972
-0.699535
0.0999941
23.9842
-0.70003
0.0973301
23.9967
-0.700121
0.0945386
24.0093
-0.699886
0.091443
24.0219
-0.699402
0.0877658
24.034
-0.698724
0.0830488
-0.697782
0.0764154
25.0089
-3.30883e-05
0.00122819
25.0095
0.0182018
0.00252479
25.006
0.0414933
0.00402969
24.9991
0.0636122
0.00585993
24.989
0.0894895
0.0081647
24.9754
0.124362
0.0106444
24.956
0.173688
0.0150254
24.9257
0.249343
0.0200367
6.214
0.374848
0.0267866
6.22198
6.21409
6.22217
-0.00368721
-0.103529
6.19865
0.116818
0.00576316
-0.0011501
-0.0388796
-1.54217
1.53606
0.0446278
0.00151618
-0.00167444
-0.0821928
-1.50627
1.48791
0.100163
0.00207481
-0.000194505
0.00447255
-0.0747537
0.0749996
-0.00474094
0.000216452
-0.00201592
-0.195317
0.0106666
-0.0217905
0.00158405
0.206873
-1.13824
0.00431603
0.0504968
-0.0745142
-0.0115292
1.16947
0.00726782
0.0499728
-1.24007
1.25597
-0.0600708
-0.0130761
0.00844352
0.0555403
-1.2987
1.31158
-0.0637241
-0.0131354
0.00877943
0.0558366
-1.34211
1.35063
-0.0606119
-0.0125205
0.00896582
0.0548107
-1.37016
1.37663
-0.0585196
-0.0117332
-1.40671
0.0341788
0.197372
5.80335
-0.21903
-0.0429477
-1.49731
-1.37738
-1.49153
24.0134
-0.673191
-0.207507
-5.85375
-6.15988
-5.80137
-6.16115
24.0499
-0.646004
-0.207216
24.0885
-0.636857
-0.207238
24.1284
-0.630649
-0.207906
24.1675
-0.625834
-0.208675
24.2046
-0.622445
-0.209228
24.239
-0.62023
-0.209421
24.2703
-0.618674
-0.20917
24.2984
-0.617564
-0.208426
24.3233
-0.616701
-0.20717
24.3455
-0.616176
-0.205453
24.3656
-0.616052
-0.203309
24.3841
-0.616188
-0.200927
24.4014
-0.616227
-0.198371
24.4176
-0.616279
-0.195828
24.4332
-0.616261
-0.193505
24.4483
-0.616047
-0.19176
24.4627
-0.615054
-0.191003
-0.612053
-0.191947
25.008
-0.00490097
0.00088463
25.0149
0.0104656
0.0018286
25.0214
0.0336965
0.00284363
25.025
0.0581155
0.00396655
25.0241
0.0879676
0.00521331
25.0282
0.11739
0.00630815
25.0398
0.158215
0.00787702
25.0678
0.216958
0.00881076
6.27567
0.306393
0.00876138
6.28776
6.27701
6.29092
-0.000881967
-0.108313
6.2832
0.100282
0.00136303
-0.000101104
-0.0439235
-1.57783
1.57959
0.0421446
0.000116045
0.000326001
-0.0813023
-1.6004
1.61707
0.0647362
-0.000456773
0.00177167
-0.026052
-1.71276
1.75008
0.0579396
-0.000765442
-0.0214565
-0.0270125
-0.0217609
0.00524825
0.110374
-1.71006
1.67941
-0.0789023
-0.00609868
0.105649
-1.60962
0.00659718
1.59854
-0.0934985
-0.00770592
0.00714151
0.075221
-1.58325
-0.00862985
1.58097
-0.0714699
0.00743203
0.0553188
-1.57743
1.57588
-0.051975
-0.00923572
0.00751675
0.0574645
-1.57494
1.57349
-0.0540239
-0.009508
0.00751053
0.0519547
-1.57261
1.57195
-0.0492429
-0.00956286
0.00742474
0.0483965
-1.56913
1.56943
-0.046672
-0.00944935
-1.56949
0.0306402
0.181455
6.2721
-0.159564
-0.0454824
-1.56964
-1.56965
-1.57038
25.0798
-0.532033
-0.251987
-6.27466
-6.26808
-6.2798
-6.27362
25.0808
-0.522199
-0.25278
25.0793
-0.509841
-0.2535
25.0777
-0.502168
-0.254814
25.0759
-0.495785
-0.256357
25.0746
-0.491306
-0.257886
25.0733
-0.487472
-0.259319
25.0719
-0.484329
-0.260595
25.0705
-0.481732
-0.261665
25.0688
-0.479369
-0.262507
25.0671
-0.477663
-0.26314
25.0657
-0.476666
-0.263825
25.0641
-0.475997
-0.263921
25.0622
-0.475072
-0.2642
25.0609
-0.475142
-0.26452
25.0599
-0.474819
-0.265085
25.0594
-0.474308
-0.266086
25.0595
-0.472904
-0.267716
-0.470933
-0.269921
25.0066
-0.00919278
0.000589256
25.0164
0.000118597
0.00118008
25.0303
0.0191291
0.00172542
25.0383
0.0491473
0.00218136
25.0556
0.0697354
0.00243605
25.0786
0.0934551
0.00228689
25.116
0.120371
0.00135629
25.1808
0.152766
-0.00106851
6.3291
0.193551
-0.00629001
6.31801
6.33324
6.31644
-0.0850876
0.00138501
6.34735
0.0676264
-0.00216071
-0.0326888
0.00351261
6.42089
0.0867422
-0.00513417
-0.0307406
-0.0328494
-0.0298198
-6.37986
-0.0292528
0.00749749
6.49202
0.0811369
-0.0109789
-0.028626
-0.0283259
-0.0309344
-6.4526
-0.00917243
0.0133784
-6.54009
6.49872
-0.058069
-0.0202264
0.0632133
-0.0104851
0.0625433
0.0351204
0.0208794
-6.49141
6.4731
-0.143587
-0.0307578
0.0516
0.034224
0.0506314
0.0581869
-6.44974
0.0263023
6.40637
-0.182112
-0.038517
0.0571735
0.0616254
0.0605968
0.0559228
0.0291392
-6.36661
6.3392
-0.176284
-0.0429183
0.0539449
0.0547734
0.0528465
0.0457253
0.03081
-6.32573
6.3189
-0.158323
-0.0455677
0.0451373
0.0447692
0.0443264
0.0446592
0.0317261
-6.31464
6.30658
-0.154746
-0.0470462
0.0452498
0.0438118
0.0444269
0.044076
0.0320258
-6.29757
6.2883
-0.145083
-0.0476841
0.0416492
0.0433363
0.0409306
0.0392258
0.0320392
-6.28055
6.27247
-0.128559
-0.0478354
0.0362878
0.0395544
0.0373269
0.139992
-6.27076
0.0321855
6.27085
-0.124409
-0.0478776
25.0673
-0.392743
-0.261192
-6.2691
-6.26757
-6.26971
-6.26745
25.0605
-0.38352
-0.260394
25.0572
-0.374632
-0.259962
25.0551
-0.367575
-0.260099
25.0544
-0.362222
-0.260206
25.0539
-0.357655
-0.260129
25.0541
-0.354361
-0.259849
25.0549
-0.351712
-0.25938
25.0554
-0.349126
-0.258756
25.0565
-0.347531
-0.258028
25.0573
-0.345875
-0.257232
25.0582