/*--------------------------------*- C++ -*----------------------------------*\
| =========                 |                                                 |
| \\      /  F ield         | OpenFOAM: The Open Source CFD Toolbox           |
|  \\    /   O peration     | Version:  2306                                  |
|   \\  /    A nd           | Website:  www.openfoam.com                      |
|    \\/     M anipulation  |                                                 |
\*---------------------------------------------------------------------------*/
FoamFile
{
    version     2.0;
    format      ascii;
    arch        "LSB;label=32;scalar=64";
    class       volVectorField;
    location    "1.35";
    object      U;
}
// * * * * * * * * * * * * * * * * * * * * * * * * * * * * * * * * * * * * * //

dimensions      [0 1 -1 0 0 0 0];

internalField   nonuniform List<vector> 
111542
(
(99.9934 0.00563431 0.00240218)
(99.9714 0.011539 0.00505528)
(99.9304 0.0176495 0.00806424)
(99.8691 0.0240811 0.0118823)
(99.786 0.0305501 0.0168957)
(99.6791 0.0362602 0.0235655)
(99.5474 0.0393369 0.0321827)
(99.3932 0.0368078 0.0432797)
(99.2257 0.0240434 0.057406)
(99.0647 -0.00536698 0.0746202)
(98.9431 -0.0572245 0.0944548)
(98.9017 -0.129286 0.115899)
(98.9671 -0.203509 0.137787)
(99.1314 -0.26026 0.158141)
(99.3507 -0.288637 0.175603)
(99.5761 -0.29795 0.190108)
(99.7794 -0.297046 0.20186)
(99.9514 -0.290736 0.211446)
(100.091 -0.282181 0.219175)
(100.202 -0.273538 0.225391)
(100.287 -0.266128 0.230123)
(100.351 -0.260091 0.233751)
(100.399 -0.255139 0.236729)
(100.435 -0.251557 0.238938)
(100.463 -0.249086 0.240475)
(100.484 -0.247243 0.241615)
(100.502 -0.246143 0.242222)
(100.515 -0.245661 0.242419)
(100.526 -0.2455 0.242465)
(100.534 -0.245544 0.242453)
(100.541 -0.245766 0.242425)
(100.547 -0.246215 0.242376)
(100.552 -0.246743 0.242497)
(100.556 -0.247348 0.242828)
(100.56 -0.248072 0.243337)
(100.564 -0.248978 0.243966)
(100.568 -0.250158 0.24459)
(100.574 -0.251498 0.245281)
(100.581 -0.25303 0.245996)
(100.594 -0.254953 0.246732)
(99.9937 0.0167826 0.00235867)
(99.9721 0.0342967 0.00490818)
(99.9316 0.0528055 0.00791919)
(99.8707 0.0725761 0.0117354)
(99.787 0.092936 0.0167338)
(99.677 0.111746 0.0233659)
(99.5374 0.124051 0.032113)
(99.3677 0.12103 0.0435466)
(99.1738 0.0880916 0.0582233)
(98.9742 0.00422489 0.0764114)
(98.81 -0.148053 0.0978953)
(98.7474 -0.362896 0.120968)
(98.8314 -0.5882 0.144757)
(99.0415 -0.751858 0.166933)
(99.3063 -0.834459 0.185589)
(99.5608 -0.865006 0.200507)
(99.7796 -0.865429 0.212373)
(99.959 -0.849346 0.221878)
(100.101 -0.826489 0.229403)
(100.211 -0.802537 0.23524)
(100.293 -0.780953 0.239754)
(100.353 -0.763742 0.243468)
(100.398 -0.750825 0.246647)
(100.43 -0.741589 0.249167)
(100.455 -0.733912 0.250976)
(100.474 -0.726575 0.252179)
(100.49 -0.720027 0.252873)
(100.501 -0.714516 0.253204)
(100.511 -0.709861 0.253337)
(100.519 -0.706015 0.253398)
(100.525 -0.703044 0.253476)
(100.53 -0.701055 0.253643)
(100.535 -0.699912 0.253973)
(100.539 -0.699624 0.25449)
(100.542 -0.700261 0.255169)
(100.546 -0.701898 0.255958)
(100.55 -0.704623 0.256784)
(100.555 -0.708248 0.257601)
(100.562 -0.712696 0.258362)
(100.572 -0.71789 0.259124)
(99.994 0.027497 0.00225121)
(99.9735 0.0562558 0.00469288)
(99.9346 0.0873686 0.00761356)
(99.8753 0.121518 0.0113311)
(99.7914 0.158303 0.0162284)
(99.677 0.195299 0.0227957)
(99.5242 0.226136 0.0316246)
(99.3257 0.237171 0.0434258)
(99.0784 0.201832 0.0589995)
(98.7991 0.0717874 0.0790709)
(98.5466 -0.262069 0.104048)
(98.4331 -0.725473 0.132551)
(98.5551 -1.14657 0.159318)
(98.8603 -1.3895 0.184079)
(99.2076 -1.48973 0.203964)
(99.512 -1.51924 0.219015)
(99.7596 -1.50358 0.230608)
(99.9535 -1.46622 0.239667)
(100.1 -1.42235 0.246553)
(100.209 -1.37885 0.251635)
(100.286 -1.34132 0.255707)
(100.34 -1.30871 0.259555)
(100.378 -1.28942 0.263264)
(100.407 -1.28128 0.266471)
(100.43 -1.27668 0.268893)
(100.447 -1.27218 0.270435)
(100.46 -1.26767 0.271157)
(100.47 -1.26341 0.271226)
(100.476 -1.25942 0.270862)
(100.481 -1.25581 0.270293)
(100.484 -1.25276 0.269714)
(100.486 -1.25045 0.269274)
(100.487 -1.24898 0.269071)
(100.487 -1.24848 0.26915)
(100.487 -1.24907 0.269496)
(100.486 -1.2509 0.270052)
(100.485 -1.25407 0.270728)
(100.485 -1.25855 0.271434)
(100.487 -1.26417 0.272117)
(100.491 -1.27032 0.272907)
(99.9946 0.0372748 0.00208497)
(99.9762 0.0765871 0.00435964)
(99.9409 0.120055 0.00709466)
(99.8857 0.169486 0.0105931)
(99.8051 0.22588 0.015235)
(99.6897 0.288577 0.0215286)
(99.5251 0.35327 0.0301435)
(99.2905 0.4074 0.0419421)
(98.9569 0.421389 0.0580604)
(98.4598 0.22141 0.0800586)
(98.2029 0.0420981 0.086995)
(97.8543 -0.614694 0.103305)
(97.9162 -1.4199 0.118028)
(98.392 -1.94063 0.130791)
(98.8945 -2.09858 0.143125)
(99.293 -2.13519 0.151261)
(99.616 -2.10004 0.156607)
(99.8597 -2.0288 0.160235)
(100.037 -1.95028 0.162496)
(100.164 -1.87928 0.163708)
(100.32 -1.9394 0.273899)
(100.354 -1.87525 0.281022)
(100.363 -1.83057 0.286722)
(100.368 -1.80364 0.29065)
(100.375 -1.78513 0.293196)
(100.378 -1.77191 0.294463)
(100.376 -1.76282 0.294547)
(100.369 -1.75677 0.293695)
(100.359 -1.75293 0.29223)
(100.347 -1.75088 0.290458)
(100.332 -1.75042 0.288621)
(100.314 -1.75139 0.286894)
(100.295 -1.75367 0.285379)
(100.273 -1.75718 0.284121)
(100.251 -1.76191 0.283113)
(100.226 -1.76789 0.282305)
(100.201 -1.77525 0.281606)
(100.175 -1.78409 0.280915)
(100.151 -1.79428 0.280168)
(100.123 -1.80458 0.279532)
(99.9957 0.0453741 0.0018563)
(99.9807 0.0936786 0.00389211)
(99.9517 0.148292 0.00633845)
(99.9053 0.212714 0.00946172)
(99.835 0.290502 0.0136081)
(99.7296 0.385172 0.019249)
(99.5693 0.499398 0.0270391)
(99.3218 0.631831 0.0378519)
(98.882 0.769245 0.0528918)
(98.5392 0.776367 0.0583687)
(97.7274 0.387531 0.0725169)
(96.92 -0.678755 0.0910116)
(97.0071 -2.33816 0.106643)
(98.1256 -2.95754 0.11981)
(98.8492 -3.00809 0.136553)
(99.3272 -2.97637 0.145881)
(99.6997 -2.86083 0.150238)
(99.9506 -2.72307 0.152223)
(100.115 -2.59221 0.152499)
(100.215 -2.48284 0.15144)
(100.275 -2.41508 0.149195)
(100.169 -2.54887 0.298799)
(100.037 -2.53799 0.311269)
(99.9137 -2.51352 0.31842)
(99.8052 -2.48341 0.321056)
(99.7034 -2.4557 0.319652)
(99.6062 -2.43189 0.314733)
(99.5136 -2.41139 0.3071)
(99.4253 -2.39386 0.297665)
(99.3405 -2.37923 0.287283)
(99.2586 -2.36735 0.276663)
(99.1791 -2.35797 0.266349)
(99.1018 -2.3508 0.256717)
(99.0263 -2.3456 0.247989)
(98.9527 -2.34222 0.240264)
(98.8811 -2.34064 0.233524)
(98.8119 -2.34102 0.22764)
(98.746 -2.34382 0.222408)
(98.6853 -2.35006 0.217603)
(98.6241 -2.36214 0.213147)
(99.9971 0.0508751 0.0015677)
(99.9872 0.105501 0.00329831)
(99.9677 0.168494 0.00535369)
(99.9357 0.245169 0.00793441)
(99.8857 0.342119 0.0113042)
(99.8074 0.468426 0.0158178)
(99.6816 0.637557 0.0219614)
(99.4719 0.869703 0.0303661)
(99.0548 1.19639 0.0418344)
(98.6474 1.35807 0.0464974)
(97.6947 1.49991 0.0452644)
(95.5818 0.730726 0.0428641)
(94.3673 -3.42268 0.0579707)
(98.15 -4.7374 0.0499169)
(98.6644 -4.00099 0.0611299)
(99.2695 -3.96433 0.058821)
(99.6776 -3.74408 0.0547657)
(99.852 -3.50108 0.0618743)
(99.8838 -3.29396 0.0859033)
(99.8086 -3.10675 0.122661)
(98.6915 -2.79578 0.134467)
(95.0942 -2.53096 0.160461)
(95.1495 -2.6017 0.154087)
(95.2282 -2.63582 0.148699)
(95.2987 -2.6506 0.143346)
(95.3629 -2.65751 0.137704)
(95.4267 -2.6597 0.131767)
(95.4912 -2.65833 0.125584)
(95.5552 -2.65474 0.119174)
(95.6175 -2.65025 0.112527)
(95.6772 -2.64582 0.105624)
(95.734 -2.64201 0.0984696)
(95.788 -2.6391 0.0910926)
(95.8394 -2.63719 0.0835511)
(95.8889 -2.63628 0.075899)
(95.937 -2.63639 0.0681495)
(95.9844 -2.63762 0.0602441)
(96.0315 -2.64032 0.0520315)
(96.0777 -2.64542 0.0432969)
(96.1303 -2.65557 0.034023)
(99.9989 0.0529001 0.00123751)
(99.9953 0.110025 0.00261323)
(99.988 0.176836 0.00419516)
(99.9756 0.259906 0.00609765)
(99.9554 0.367993 0.00845792)
(99.9227 0.514427 0.0114358)
(99.8693 0.721015 0.0151897)
(99.7808 1.02611 0.0197964)
(99.6097 1.50298 0.0251052)
(99.3434 1.90227 0.0274751)
(98.6264 2.83771 0.0253081)
(95.4793 5.84047 0.0228127)
(77.0899 -4.28709 0.044476)
(102.667 -10.2897 0.0224143)
(48.8356 -1.70383 -1.09723)
(75.4726 -4.36095 -0.173798)
(79.3267 -3.58953 -0.17591)
(82.1989 -3.263 -0.221424)
(84.591 -3.12476 -0.256877)
(86.6503 -3.11491 -0.262009)
(92.672 -3.66113 -0.107327)
(96.3792 -3.36994 -0.249514)
(96.5142 -3.24699 -0.258363)
(96.6526 -3.15547 -0.260945)
(96.7603 -3.08491 -0.259834)
(96.8473 -3.02684 -0.25631)
(96.9256 -2.9775 -0.251075)
(97.0007 -2.93499 -0.244685)
(97.0744 -2.89808 -0.237584)
(97.1475 -2.86593 -0.230101)
(97.2206 -2.83802 -0.222498)
(97.2934 -2.81394 -0.21502)
(97.3657 -2.79332 -0.20792)
(97.4369 -2.77578 -0.201459)
(97.5065 -2.7609 -0.195901)
(97.5742 -2.74825 -0.191507)
(97.64 -2.73731 -0.188554)
(97.704 -2.72745 -0.187321)
(97.766 -2.71761 -0.188107)
(97.8399 -2.70532 -0.191179)
(100.001 0.0508957 0.0010054)
(100.004 0.105955 0.00197522)
(100.01 0.170789 0.00303324)
(100.02 0.252116 0.00419753)
(100.033 0.358916 0.00545596)
(100.054 0.504612 0.00674574)
(100.088 0.710411 0.00787499)
(100.151 1.01186 0.00835776)
(100.295 1.47078 0.00715055)
(100.345 1.87966 0.00670612)
(100.622 2.86045 0.00268479)
(102.44 5.37978 -0.00318915)
(111.135 3.9232 -0.0258793)
(109.092 -6.80947 0.0119205)
(102.789 -6.84429 -0.0502999)
(101.141 -5.04751 -0.055633)
(100.689 -4.05327 -0.0570523)
(100.51 -3.5005 -0.0617057)
(100.423 -3.17396 -0.0679491)
(100.352 -2.98107 -0.0731282)
(100.253 -2.73007 -0.124988)
(100.274 -2.33242 -0.259859)
(100.252 -2.22757 -0.267387)
(100.237 -2.16336 -0.272085)
(100.228 -2.12347 -0.275085)
(100.221 -2.09507 -0.276649)
(100.216 -2.07367 -0.276703)
(100.214 -2.05788 -0.275357)
(100.214 -2.04674 -0.272887)
(100.214 -2.03935 -0.269626)
(100.215 -2.03503 -0.265913)
(100.216 -2.03324 -0.262076)
(100.217 -2.0335 -0.258405)
(100.217 -2.03539 -0.255151)
(100.216 -2.03843 -0.252523)
(100.215 -2.04214 -0.250702)
(100.214 -2.04592 -0.249863)
(100.214 -2.04898 -0.250173)
(100.216 -2.05002 -0.251772)
(100.223 -2.04661 -0.25461)
(100.003 0.0446543 0.000626502)
(100.012 0.0930146 0.00125156)
(100.031 0.149979 0.0018599)
(100.06 0.221318 0.00235128)
(100.105 0.314388 0.00259852)
(100.172 0.439182 0.00237359)
(100.276 0.609699 0.00124017)
(100.442 0.845211 -0.00159954)
(100.759 1.16982 -0.00763116)
(100.984 1.40782 -0.00996876)
(101.837 1.85962 -0.0181893)
(103.449 1.75735 -0.0332452)
(105.23 -0.251332 -0.0520377)
(104.778 -2.83605 -0.0376323)
(102.99 -3.55432 -0.058697)
(101.78 -3.34056 -0.0735698)
(101.15 -2.99304 -0.081814)
(100.808 -2.69906 -0.086326)
(100.608 -2.47929 -0.0888436)
(100.473 -2.31637 -0.0905095)
(100.376 -2.18594 -0.0923945)
(100.272 -1.90672 -0.25371)
(100.236 -1.87134 -0.256541)
(100.213 -1.84325 -0.257669)
(100.2 -1.82149 -0.257822)
(100.194 -1.80296 -0.257329)
(100.192 -1.78613 -0.256341)
(100.193 -1.77085 -0.255042)
(100.196 -1.75724 -0.253629)
(100.199 -1.74532 -0.252253)
(100.203 -1.73508 -0.25101)
(100.207 -1.72648 -0.249958)
(100.211 -1.71944 -0.249127)
(100.213 -1.71378 -0.248538)
(100.216 -1.70919 -0.248222)
(100.217 -1.7053 -0.248225)
(100.219 -1.70164 -0.248626)
(100.222 -1.69765 -0.249527)
(100.228 -1.69283 -0.251063)
(100.242 -1.68711 -0.253413)
(100.004 0.0347031 0.000403389)
(100.019 0.0722971 0.000788025)
(100.048 0.116424 0.0010025)
(100.093 0.171265 0.000924947)
(100.161 0.24173 0.000357497)
(100.26 0.333506 -0.00104477)
(100.406 0.452718 -0.00384349)
(100.624 0.603673 -0.00894933)
(100.958 0.782441 -0.0178597)
(101.444 0.865159 -0.032552)
(102.084 0.766204 -0.0549628)
(102.76 0.237869 -0.0856399)
(103.121 -0.748079 -0.119824)
(102.878 -1.57715 -0.150333)
(102.241 -1.88529 -0.179539)
(101.612 -1.89491 -0.202127)
(101.164 -1.81398 -0.217313)
(100.869 -1.71412 -0.227351)
(100.671 -1.61938 -0.234123)
(100.53 -1.53534 -0.238687)
(100.432 -1.46177 -0.241892)
(100.367 -1.39562 -0.244544)
(100.322 -1.34124 -0.246568)
(100.291 -1.29542 -0.247974)
(100.27 -1.25767 -0.248837)
(100.256 -1.22681 -0.249217)
(100.246 -1.20131 -0.24918)
(100.24 -1.18019 -0.248811)
(100.237 -1.16281 -0.248213)
(100.235 -1.1487 -0.247496)
(100.234 -1.13745 -0.246768)
(100.233 -1.1287 -0.246129)
(100.232 -1.12213 -0.245664)
(100.231 -1.11737 -0.245442)
(100.231 -1.11403 -0.245528)
(100.23 -1.11174 -0.245972)
(100.23 -1.11008 -0.246826)
(100.232 -1.10863 -0.248149)
(100.235 -1.10709 -0.250012)
(100.242 -1.10547 -0.252515)
(100.005 0.022012 0.000232577)
(100.024 0.0457425 0.000391005)
(100.06 0.0735718 0.000334433)
(100.116 0.107741 -0.00010517)
(100.198 0.151059 -0.00121963)
(100.314 0.20584 -0.00337938)
(100.478 0.273452 -0.0071799)
(100.706 0.351331 -0.0134646)
(101.015 0.426563 -0.023408)
(101.416 0.460135 -0.0383536)
(101.881 0.396238 -0.0594334)
(102.312 0.160405 -0.086855)
(102.538 -0.257853 -0.117774)
(102.426 -0.685872 -0.147465)
(102.042 -0.93128 -0.17394)
(101.584 -0.994252 -0.194841)
(101.203 -0.969704 -0.210239)
(100.926 -0.919668 -0.221206)
(100.726 -0.867453 -0.22908)
(100.577 -0.819558 -0.234694)
(100.467 -0.778335 -0.238627)
(100.386 -0.746424 -0.241371)
(100.327 -0.723458 -0.243279)
(100.285 -0.707157 -0.244417)
(100.255 -0.695693 -0.244859)
(100.234 -0.687819 -0.244726)
(100.22 -0.682441 -0.244162)
(100.211 -0.678772 -0.2433)
(100.206 -0.676371 -0.242259)
(100.202 -0.674999 -0.241153)
(100.201 -0.674474 -0.240081)
(100.2 -0.67467 -0.239127)
(100.2 -0.675464 -0.238357)
(100.2 -0.676765 -0.237821)
(100.201 -0.678161 -0.237593)
(100.202 -0.679624 -0.237685)
(100.204 -0.680989 -0.238123)
(100.208 -0.682055 -0.238954)
(100.214 -0.682674 -0.240265)
(100.229 -0.682672 -0.242265)
(100.006 0.00754292 0.000135198)
(100.026 0.0156283 0.000230032)
(100.065 0.0251382 4.271e-06)
(100.126 0.0366774 -0.000563952)
(100.215 0.0512543 -0.00196276)
(100.339 0.0693888 -0.00449394)
(100.509 0.0910531 -0.00878793)
(100.736 0.114752 -0.0155681)
(101.027 0.135394 -0.0259724)
(101.377 0.140444 -0.0407655)
(101.751 0.110081 -0.0605812)
(102.075 0.0237677 -0.0851785)
(102.244 -0.115241 -0.11277)
(102.181 -0.25968 -0.140375)
(101.911 -0.352377 -0.164787)
(101.55 -0.382492 -0.184871)
(101.212 -0.378438 -0.200479)
(100.945 -0.364373 -0.211971)
(100.744 -0.349319 -0.220417)
(100.592 -0.33544 -0.226546)
(100.477 -0.323328 -0.230897)
(100.391 -0.313359 -0.23387)
(100.329 -0.30496 -0.23578)
(100.285 -0.297444 -0.236756)
(100.254 -0.290219 -0.237073)
(100.233 -0.283109 -0.236882)
(100.218 -0.276067 -0.236303)
(100.209 -0.26911 -0.23546)
(100.203 -0.262329 -0.234465)
(100.199 -0.255834 -0.233426)
(100.197 -0.249725 -0.232438)
(100.195 -0.244076 -0.231581)
(100.195 -0.238944 -0.230909)
(100.194 -0.23439 -0.230428)
(100.195 -0.230197 -0.230382)
(100.195 -0.226453 -0.230672)
(100.197 -0.223147 -0.231291)
(100.2 -0.22024 -0.232282)
(100.205 -0.217805 -0.233728)
(100.215 -0.216303 -0.235853)
(99.9936 0.00559136 0.00715815)
(99.9719 0.0113933 0.0149319)
(99.9314 0.0175079 0.0239697)
(99.8712 0.0239412 0.0353703)
(99.7898 0.0303986 0.0502152)
(99.685 0.0360775 0.0697652)
(99.5561 0.0392879 0.0951508)
(99.4054 0.0370936 0.127857)
(99.2419 0.0248701 0.169248)
(99.0847 -0.00361192 0.219637)
(98.9658 -0.0539588 0.278041)
(98.925 -0.124416 0.341553)
(98.9881 -0.196456 0.405739)
(99.1465 -0.251055 0.465237)
(99.3582 -0.278118 0.516164)
(99.576 -0.286854 0.558062)
(99.773 -0.285699 0.591786)
(99.9405 -0.279358 0.618859)
(100.078 -0.270934 0.640295)
(100.188 -0.26266 0.656995)
(100.274 -0.255398 0.669474)
(100.341 -0.249243 0.678754)
(100.392 -0.244077 0.685896)
(100.432 -0.240188 0.691119)
(100.462 -0.237449 0.694745)
(100.487 -0.235558 0.697252)
(100.506 -0.234378 0.698648)
(100.522 -0.233765 0.699256)
(100.533 -0.23352 0.699532)
(100.542 -0.233489 0.69967)
(100.549 -0.233591 0.699759)
(100.553 -0.233798 0.699833)
(100.557 -0.234091 0.700139)
(100.559 -0.234483 0.700716)
(100.561 -0.235007 0.701488)
(100.563 -0.235721 0.702328)
(100.565 -0.236668 0.703026)
(100.569 -0.237856 0.703576)
(100.575 -0.239324 0.703786)
(100.588 -0.241205 0.703421)
(99.9938 0.0166334 0.0070085)
(99.9725 0.0339395 0.0145755)
(99.9328 0.0523657 0.0235362)
(99.873 0.0720446 0.0348631)
(99.7911 0.0923017 0.0496436)
(99.6834 0.111036 0.069187)
(99.5471 0.123581 0.0949537)
(99.3816 0.121285 0.128634)
(99.1927 0.0897782 0.17185)
(98.9982 0.00865677 0.225542)
(98.8379 -0.138981 0.289172)
(98.7776 -0.346844 0.359545)
(98.8603 -0.56625 0.430885)
(99.0646 -0.726392 0.496214)
(99.3211 -0.806302 0.550366)
(99.5674 -0.835939 0.593382)
(99.7796 -0.836169 0.627274)
(99.9543 -0.820321 0.653993)
(100.094 -0.79811 0.674704)
(100.202 -0.775141 0.690252)
(100.285 -0.754128 0.701584)
(100.348 -0.736701 0.710189)
(100.395 -0.72312 0.716949)
(100.429 -0.712991 0.722023)
(100.456 -0.704558 0.725588)
(100.477 -0.69694 0.728036)
(100.493 -0.690378 0.729713)
(100.506 -0.685067 0.730946)
(100.516 -0.680846 0.731994)
(100.524 -0.677531 0.733002)
(100.53 -0.675029 0.734045)
(100.534 -0.673305 0.735169)
(100.538 -0.672307 0.736439)
(100.541 -0.672065 0.737846)
(100.543 -0.672648 0.739313)
(100.545 -0.674126 0.740718)
(100.548 -0.676585 0.741902)
(100.552 -0.680011 0.742716)
(100.557 -0.684327 0.742968)
(100.568 -0.689355 0.742492)
(99.9941 0.0272256 0.00668652)
(99.9739 0.0557155 0.0139397)
(99.9359 0.0865618 0.0226052)
(99.8778 0.120409 0.0336208)
(99.7959 0.156862 0.0481117)
(99.6843 0.193572 0.0675115)
(99.5355 0.224349 0.0935905)
(99.3423 0.23584 0.128499)
(99.1017 0.202008 0.174642)
(98.8301 0.0755037 0.234188)
(98.5848 -0.250275 0.307853)
(98.4754 -0.702723 0.391408)
(98.5955 -1.11289 0.474976)
(98.8938 -1.34901 0.549616)
(99.231 -1.44616 0.608038)
(99.5257 -1.47526 0.651916)
(99.766 -1.45993 0.685401)
(99.955 -1.42335 0.711103)
(100.099 -1.38066 0.730094)
(100.206 -1.33814 0.743227)
(100.285 -1.29959 0.751616)
(100.341 -1.2637 0.757927)
(100.38 -1.24234 0.763575)
(100.409 -1.23347 0.768435)
(100.432 -1.22885 0.772236)
(100.45 -1.22494 0.775142)
(100.462 -1.22146 0.777509)
(100.471 -1.21846 0.779627)
(100.477 -1.21574 0.781683)
(100.481 -1.2132 0.783782)
(100.484 -1.21085 0.785961)
(100.485 -1.20884 0.78822)
(100.486 -1.20734 0.790524)
(100.486 -1.20655 0.792798)
(100.485 -1.20669 0.79493)
(100.484 -1.20801 0.796757)
(100.483 -1.21072 0.798078)
(100.483 -1.21492 0.798672)
(100.484 -1.22048 0.798349)
(100.49 -1.22669 0.797115)
(99.9947 0.0368837 0.00618996)
(99.9767 0.0757977 0.0129395)
(99.9422 0.118805 0.0210443)
(99.8884 0.167662 0.0314054)
(99.8099 0.22334 0.0451557)
(99.6976 0.285191 0.0638085)
(99.5376 0.348975 0.0893996)
(99.3094 0.402324 0.124605)
(98.9844 0.416048 0.172947)
(98.4991 0.219445 0.238951)
(98.243 0.0372999 0.272505)
(97.9026 -0.621016 0.350751)
(97.9697 -1.41997 0.434032)
(98.4443 -1.94007 0.511291)
(98.9371 -2.09594 0.570756)
(99.326 -2.13423 0.611847)
(99.6418 -2.10143 0.641174)
(99.8804 -2.0318 0.66298)
(100.054 -1.95449 0.678548)
(100.179 -1.88426 0.688999)
(100.331 -1.90556 0.814367)
(100.365 -1.82657 0.817645)
(100.37 -1.77143 0.819728)
(100.372 -1.74018 0.821999)
(100.375 -1.72186 0.824964)
(100.376 -1.71217 0.828559)
(100.371 -1.70891 0.832644)
(100.363 -1.70984 0.837106)
(100.351 -1.71309 0.84184)
(100.338 -1.71744 0.84671)
(100.322 -1.72217 0.851558)
(100.305 -1.72693 0.856206)
(100.286 -1.7316 0.860471)
(100.266 -1.73632 0.864165)
(100.243 -1.74131 0.867089)
(100.219 -1.74695 0.869024)
(100.194 -1.75361 0.869695)
(100.169 -1.76168 0.868788)
(100.145 -1.77125 0.865989)
(100.118 -1.78122 0.861145)
(99.9957 0.0448616 0.00550771)
(99.9812 0.0926309 0.0115366)
(99.953 0.146579 0.0187776)
(99.9079 0.210107 0.0280313)
(99.8397 0.286667 0.0403406)
(99.7374 0.379649 0.0571465)
(99.5818 0.491578 0.0804831)
(99.3409 0.620935 0.113152)
(98.9113 0.7542 0.158996)
(98.5712 0.756103 0.185289)
(97.7702 0.366229 0.253197)
(96.9765 -0.696205 0.341809)
(97.0757 -2.33929 0.443635)
(98.1935 -2.94837 0.538085)
(98.9031 -2.98372 0.604197)
(99.3661 -2.95347 0.640523)
(99.7308 -2.84315 0.664104)
(99.9775 -2.70953 0.682248)
(100.139 -2.58213 0.69515)
(100.237 -2.47613 0.70347)
(100.299 -2.41533 0.714228)
(100.232 -2.50684 0.8263)
(100.095 -2.49178 0.818169)
(99.964 -2.46678 0.807741)
(99.8454 -2.44042 0.797824)
(99.7311 -2.42003 0.789373)
(99.6197 -2.40575 0.782447)
(99.5127 -2.3956 0.776991)
(99.4111 -2.38811 0.772927)
(99.315 -2.38241 0.77008)
(99.2242 -2.3779 0.768152)
(99.1384 -2.37422 0.766736)
(99.0572 -2.37119 0.765368)
(98.9799 -2.36885 0.763587)
(98.9062 -2.36735 0.760954)
(98.8354 -2.36698 0.757054)
(98.7675 -2.36818 0.751426)
(98.7031 -2.37161 0.743559)
(98.6442 -2.3785 0.732912)
(98.5861 -2.39145 0.719325)
(99.9972 0.0502604 0.00467977)
(99.9876 0.104235 0.00977236)
(99.9688 0.166376 0.0158316)
(99.938 0.241852 0.0234744)
(99.8898 0.337055 0.0335086)
(99.814 0.460783 0.0470534)
(99.692 0.62605 0.0656739)
(99.4877 0.852336 0.0915325)
(99.0787 1.16996 0.127465)
(98.6748 1.3277 0.149445)
(97.7308 1.46356 0.180801)
(95.6389 0.689428 0.240756)
(94.4441 -3.45407 0.343928)
(98.2623 -4.73528 0.465552)
(98.7773 -3.89949 0.544566)
(99.336 -3.85591 0.546533)
(99.7293 -3.67751 0.549549)
(99.8898 -3.47351 0.57355)
(99.9035 -3.29176 0.609868)
(99.8124 -3.11399 0.648343)
(98.7117 -2.7599 0.748814)
(95.2921 -2.28661 0.46925)
(95.3537 -2.3539 0.440901)
(95.4196 -2.39356 0.415033)
(95.4644 -2.42628 0.391761)
(95.4955 -2.46254 0.371512)
(95.5237 -2.50218 0.354296)
(95.5538 -2.54254 0.340023)
(95.5874 -2.58137 0.32857)
(95.6247 -2.61705 0.319683)
(95.6657 -2.64846 0.312947)
(95.71 -2.67497 0.307852)
(95.7571 -2.69646 0.30378)
(95.8064 -2.71322 0.300139)
(95.8573 -2.72583 0.296377)
(95.9092 -2.73504 0.291936)
(95.9617 -2.74171 0.286183)
(96.0143 -2.74693 0.278305)
(96.066 -2.75233 0.267131)
(96.1265 -2.76134 0.25086)
(99.999 0.0523241 0.00369882)
(99.9957 0.108696 0.00770774)
(99.9889 0.174518 0.012354)
(99.9773 0.256185 0.0179891)
(99.9582 0.362185 0.025049)
(99.927 0.50545 0.0340765)
(99.8755 0.707128 0.0456984)
(99.789 1.00454 0.0604294)
(99.6191 1.46918 0.0781927)
(99.3543 1.86147 0.089175)
(98.6413 2.78297 0.101567)
(95.5164 5.75933 0.130165)
(77.2109 -4.42327 0.222545)
(49.9333 -3.28937 0.373532)
(73.0795 -3.90404 -0.404782)
(79.3331 -3.73236 -0.66922)
(83.4058 -3.73518 -0.755116)
(86.0383 -3.67535 -0.748979)
(87.7633 -3.58451 -0.716139)
(92.4902 -3.7131 -0.724011)
(95.9119 -3.29981 -0.661513)
(96.064 -3.17505 -0.648001)
(96.2461 -3.087 -0.635145)
(96.4152 -3.02595 -0.625357)
(96.5738 -2.98258 -0.618753)
(96.726 -2.9515 -0.61454)
(96.87 -2.92914 -0.611854)
(97.0028 -2.91278 -0.609829)
(97.123 -2.90036 -0.607637)
(97.2305 -2.89042 -0.604608)
(97.3264 -2.882 -0.600317)
(97.4124 -2.87448 -0.594608)
(97.4902 -2.86748 -0.587607)
(97.5619 -2.86074 -0.579664)
(97.6291 -2.85407 -0.571335)
(97.6931 -2.84723 -0.563415)
(97.7547 -2.83979 -0.556936)
(97.8142 -2.83087 -0.55333)
(97.8852 -2.81821 -0.554682)
(100.001 0.0502676 0.00276007)
(100.004 0.104586 0.00564069)
(100.011 0.168452 0.00877131)
(100.02 0.248379 0.0122229)
(100.035 0.353083 0.0160131)
(100.056 0.495586 0.0200349)
(100.09 0.696525 0.0238387)
(100.15 0.990595 0.0261848)
(100.29 1.43839 0.0241399)
(100.337 1.84058 0.0216592)
(100.607 2.80707 0.00935608)
(102.413 5.29095 -0.0244331)
(110.943 3.89408 -0.0565494)
(108.906 -6.54247 -0.34386)
(102.741 -6.71012 -0.439863)
(101.109 -4.94443 -0.482453)
(100.661 -3.98247 -0.509781)
(100.49 -3.46144 -0.524582)
(100.411 -3.1599 -0.529275)
(100.348 -2.98267 -0.529008)
(100.245 -2.7458 -0.608991)
(100.269 -2.33511 -0.737184)
(100.261 -2.23079 -0.738931)
(100.257 -2.17222 -0.738)
(100.254 -2.14027 -0.737617)
(100.251 -2.12022 -0.738388)
(100.249 -2.10631 -0.739796)
(100.246 -2.09645 -0.741397)
(100.243 -2.08943 -0.742921)
(100.24 -2.08446 -0.744166)
(100.236 -2.08122 -0.745011)
(100.232 -2.07961 -0.745421)
(100.227 -2.0796 -0.745439)
(100.222 -2.08112 -0.745162)
(100.217 -2.08395 -0.744807)
(100.213 -2.08772 -0.744676)
(100.209 -2.09182 -0.745214)
(100.206 -2.09529 -0.746999)
(100.207 -2.09663 -0.750714)
(100.215 -2.09313 -0.756753)
(100.003 0.0440414 0.00178185)
(100.012 0.0918182 0.00361472)
(100.031 0.147939 0.00534526)
(100.061 0.21805 0.00676558)
(100.105 0.3093 0.00753118)
(100.172 0.431382 0.00700738)
(100.274 0.597942 0.00398869)
(100.437 0.827795 -0.00377461)
(100.746 1.14445 -0.0205282)
(100.968 1.37808 -0.0322785)
(101.804 1.82127 -0.0735456)
(103.392 1.7131 -0.152181)
(105.134 -0.267213 -0.268997)
(104.681 -2.79981 -0.401274)
(102.932 -3.52709 -0.496829)
(101.744 -3.31934 -0.554113)
(101.128 -2.98074 -0.587297)
(100.796 -2.69571 -0.604918)
(100.601 -2.48362 -0.613312)
(100.47 -2.32699 -0.61693)
(100.372 -2.19907 -0.619768)
(100.271 -1.89594 -0.764763)
(100.239 -1.85559 -0.764141)
(100.219 -1.82522 -0.762403)
(100.208 -1.8025 -0.760628)
(100.203 -1.78389 -0.759009)
(100.201 -1.76772 -0.757416)
(100.202 -1.75367 -0.755739)
(100.204 -1.74161 -0.75392)
(100.207 -1.73132 -0.75192)
(100.21 -1.72261 -0.74974)
(100.213 -1.71534 -0.747427)
(100.215 -1.70936 -0.745078)
(100.218 -1.70445 -0.742821)
(100.219 -1.70034 -0.74086)
(100.221 -1.69662 -0.739448)
(100.222 -1.69284 -0.738908)
(100.225 -1.68839 -0.739629)
(100.229 -1.68273 -0.742047)
(100.242 -1.67597 -0.746541)
(100.004 0.0343009 0.00106148)
(100.019 0.0714203 0.00204326)
(100.048 0.114885 0.0026171)
(100.094 0.168825 0.00238353)
(100.161 0.237913 0.000738999)
(100.259 0.327724 -0.00328858)
(100.402 0.444208 -0.011287)
(100.616 0.591527 -0.0258675)
(100.942 0.765734 -0.0513226)
(101.417 0.847078 -0.0938613)
(102.041 0.751767 -0.159758)
(102.701 0.237314 -0.252288)
(103.051 -0.720309 -0.361981)
(102.812 -1.5316 -0.475404)
(102.192 -1.83765 -0.567548)
(101.583 -1.84894 -0.631696)
(101.149 -1.77128 -0.67345)
(100.865 -1.67551 -0.700375)
(100.672 -1.58471 -0.717824)
(100.534 -1.50388 -0.728726)
(100.436 -1.4321 -0.734925)
(100.369 -1.36473 -0.737674)
(100.323 -1.30991 -0.739306)
(100.291 -1.26459 -0.740227)
(100.269 -1.22758 -0.740284)
(100.254 -1.19744 -0.739585)
(100.244 -1.17266 -0.738383)
(100.237 -1.15215 -0.736883)
(100.234 -1.13522 -0.735233)
(100.232 -1.12138 -0.733556)
(100.231 -1.11022 -0.731974)
(100.231 -1.10142 -0.730604)
(100.231 -1.09471 -0.729565)
(100.232 -1.08981 -0.728958)
(100.232 -1.08636 -0.728913)
(100.232 -1.08399 -0.729563)
(100.233 -1.08225 -0.731069)
(100.235 -1.08067 -0.73362)
(100.238 -1.07891 -0.737415)
(100.244 -1.07703 -0.742529)
(100.005 0.0217419 0.000548301)
(100.024 0.0451947 0.000911215)
(100.06 0.072613 0.000677681)
(100.116 0.106307 -0.000665614)
(100.197 0.148777 -0.00393062)
(100.312 0.202426 -0.0101995)
(100.474 0.268579 -0.0211592)
(100.697 0.344774 -0.0392775)
(101 0.418344 -0.0679646)
(101.391 0.451663 -0.111334)
(101.844 0.390255 -0.173055)
(102.265 0.160846 -0.253902)
(102.486 -0.248065 -0.347625)
(102.38 -0.665939 -0.441664)
(102.006 -0.904364 -0.522997)
(101.564 -0.965423 -0.584428)
(101.196 -0.941604 -0.627766)
(100.927 -0.89339 -0.658034)
(100.732 -0.843249 -0.679307)
(100.586 -0.797334 -0.693975)
(100.476 -0.75767 -0.703589)
(100.394 -0.726445 -0.709451)
(100.333 -0.703686 -0.712969)
(100.288 -0.687234 -0.714633)
(100.256 -0.675468 -0.714644)
(100.233 -0.667227 -0.713332)
(100.217 -0.661483 -0.711096)
(100.206 -0.657485 -0.708274)
(100.199 -0.654816 -0.705135)
(100.196 -0.653236 -0.701903)
(100.195 -0.652559 -0.698775)
(100.195 -0.652644 -0.695917)
(100.196 -0.653337 -0.693473)
(100.198 -0.654492 -0.691563)
(100.201 -0.655878 -0.690341)
(100.203 -0.657318 -0.689883)
(100.207 -0.658585 -0.690285)
(100.212 -0.659476 -0.691688)
(100.219 -0.659843 -0.69428)
(100.232 -0.659653 -0.698329)
(100.006 0.00744475 0.000285421)
(100.027 0.0154675 0.000380576)
(100.066 0.0248041 -0.000291541)
(100.127 0.0362054 -0.0021288)
(100.215 0.050451 -0.00621713)
(100.337 0.068183 -0.0135199)
(100.505 0.0893812 -0.0257332)
(100.728 0.112604 -0.0451533)
(101.014 0.132787 -0.0748392)
(101.356 0.137979 -0.117563)
(101.722 0.1089 -0.175469)
(102.039 0.0255281 -0.248054)
(102.206 -0.109281 -0.330347)
(102.148 -0.249755 -0.413205)
(101.887 -0.339554 -0.486981)
(101.538 -0.368973 -0.546132)
(101.212 -0.365314 -0.590156)
(100.953 -0.351881 -0.621976)
(100.756 -0.337499 -0.644941)
(100.605 -0.32422 -0.661224)
(100.489 -0.312597 -0.672316)
(100.402 -0.302909 -0.679388)
(100.336 -0.294549 -0.683496)
(100.288 -0.286893 -0.685331)
(100.254 -0.279553 -0.685511)
(100.229 -0.272383 -0.684406)
(100.212 -0.265315 -0.682353)
(100.2 -0.25836 -0.679689)
(100.193 -0.251602 -0.676722)
(100.189 -0.245151 -0.673715)
(100.188 -0.239103 -0.670893)
(100.188 -0.23353 -0.668436)
(100.189 -0.228481 -0.666483)
(100.191 -0.223969 -0.665099)
(100.194 -0.21995 -0.664618)
(100.197 -0.216401 -0.664953)
(100.201 -0.213278 -0.666127)
(100.205 -0.210537 -0.668241)
(100.211 -0.208244 -0.671438)
(100.22 -0.206877 -0.675927)
(99.9939 0.00548551 0.0116009)
(99.9732 0.0111847 0.0240693)
(99.9346 0.0172212 0.038762)
(99.8773 0.0235835 0.0571969)
(99.8 0.0299941 0.081046)
(99.7007 0.0357112 0.112296)
(99.5788 0.0391795 0.153086)
(99.4368 0.0376354 0.205781)
(99.2831 0.0267194 0.272499)
(99.1354 0.000603215 0.354141)
(99.0239 -0.0461572 0.449421)
(98.9856 -0.1115 0.553668)
(99.0443 -0.178688 0.658791)
(99.1924 -0.229463 0.756251)
(99.3904 -0.254418 0.839519)
(99.5944 -0.262293 0.907512)
(99.7796 -0.260872 0.961977)
(99.9381 -0.254602 1.00534)
(100.069 -0.246522 1.03944)
(100.176 -0.238871 1.06576)
(100.261 -0.232326 1.08557)
(100.328 -0.226724 1.10046)
(100.382 -0.221957 1.112)
(100.424 -0.218336 1.12116)
(100.458 -0.215747 1.12832)
(100.486 -0.213797 1.13366)
(100.508 -0.212244 1.13735)
(100.525 -0.210968 1.13976)
(100.538 -0.209868 1.14129)
(100.547 -0.208872 1.14227)
(100.554 -0.207963 1.14295)
(100.557 -0.207176 1.14355)
(100.559 -0.206552 1.14431)
(100.56 -0.206137 1.14533)
(100.559 -0.205972 1.14664)
(100.558 -0.206114 1.14814)
(100.558 -0.206608 1.14965)
(100.559 -0.207478 1.15095)
(100.563 -0.20876 1.15165)
(100.572 -0.210578 1.15117)
(99.994 0.0163138 0.0113401)
(99.9738 0.0333121 0.0235621)
(99.936 0.0514558 0.0380404)
(99.8792 0.0708522 0.0562854)
(99.8016 0.0908747 0.0800252)
(99.6999 0.109579 0.111395)
(99.5714 0.122623 0.152866)
(99.4159 0.121851 0.207283)
(99.2387 0.0936937 0.277481)
(99.0564 0.018908 0.365406)
(98.9069 -0.118601 0.470496)