/*--------------------------------*- C++ -*----------------------------------*\
| =========                 |                                                 |
| \\      /  F ield         | OpenFOAM: The Open Source CFD Toolbox           |
|  \\    /   O peration     | Version:  2306                                  |
|   \\  /    A nd           | Website:  www.openfoam.com                      |
|    \\/     M anipulation  |                                                 |
\*---------------------------------------------------------------------------*/
FoamFile
{
    version     2.0;
    format      ascii;
    arch        "LSB;label=32;scalar=64";
    class       volScalarField;
    location    "0";
    object      thicknessFraction;
}
// * * * * * * * * * * * * * * * * * * * * * * * * * * * * * * * * * * * * * //

dimensions      [0 0 0 0 0 0 0];

internalField   uniform 0;

boundaryField
{
    walls
    {
        type            fixedValue;
        value           uniform 0;
    }
    inlet
    {
        type            fixedValue;
        value           uniform 0;
    }
    outlet
    {
        type            fixedValue;
        value           uniform 0;
    }
    NASA
    {
        type            fixedValue;
        value           nonuniform List<scalar> 
20963
(
0
0
0
0
0
0
0
0
0
0
0
0
0
0
0
0
0
0
0
0
0
0
0
0
0
0
0
0
0
0
0
0
0
0
0
0
0
0
0
0
0
0
0
0
0
0
0
0
0
0
0
0
0
0
0
0
0
0
0
0
0
0
0
0
0
0
0
0
0
0
0
0
0
0
0
0
0
0
0
0
0
0
0
0
0
0
0
0
0
0
0
0
0
0
0
0
0
0
0
0
0
0
0
0
0
0
0
0
0
0
0
0
0
0
0
0
0
0
0
0
0
0
0
0
0
0
0
0
0
0
0
0
0
0
0
0
0
0
0
0
0
0
0
0
0
0
0
0
0
0
0
0
0
0
0
0
0
0
0
0
0
0
0
0
0
0
0
0
0
0
0
0
0
0
0
0
0
0
0
0
0
0
0
0
0
0
0
0
0
0
0
0
0
0
0
0
0
0
0
0
0
0
0
0
0
0
0
0
0
0
0
0
0
0
0
0
0
0
0
0
0
0
0
0
0
0
0
0
0
0
0
0
0
0
0
0
0
0
0
0
0
0
0
0
0
0
0
0
0
0
0
0
0
0
0
0
0
0
0
0
0
0
0
0
0
0
0
0
0
0
0
0
0
0
0
0
0
0
0
0
0
0
0
0
0
0
0
0
0
0
0
0
0
0
0
0
0
0
0
0
0
0
0
0
0
0
0
0
0
0
0
0
0
0
0
0
0
0
0
0
0
0
0
0
0
0
0
0
0
0
0
0
0
0
0
0
0
0
0
0
0
0
0
0
0
0
0
0
0
0
0
0
0
0
0
0
0
0
0
0
0
0
0
0
0
0
0
0
0
0
0
0
0
0
0
0
0
0
0
0
0
0
0
0
0
0
0
0
0
0
0
0
0
0
0
0
0
0
0
0
0
0
0
0
0
0
0
0
0
0
0
0
0
0
0
0
0
0
0
0
0
0
0
0
0
0
0
0
0
0
1
0.963764
0.960026
0.961435
0.964795
0.80783
0.809058
0.767537
0.807519
0.759676
0.774879
0.764725
0.497608
0.79965
0.797415
0.529473
0.820848
0.814629
1
1
0.986141
0.987998
1
0.988934
1
0.988739
0.759379
0.803563
0.71002
0.701588
0.955888
0.797649
0.64871
0.959703
0.671611
0.790559
0.698705
0.802761
0.626202
0.759265
0.807004
0.754476
0.831789
0.800779
0.705286
0.792236
0.604196
0.81092
0.75282
0.371541
0.519932
0.869308
0.137543
0.785943
0.788731
0.545669
0.0548322
0.384286
0.133952
0.212213
0.817846
0.318976
0.862208
0.177749
0.749503
0.807837
0.699486
0.758778
0.807568
0.770062
0.792405
0.680234
0.134462
0.351348
0.108781
0.557926
0.798974
0.672539
0.502476
0.793327
0.289208
0.434586
0.594834
0.6264
0.482667
0.227398
0.37913
0.22851
0.178863
0.17838
0.705848
0.746803
0.484209
0.824623
0.105027
0.818772
0.366479
0.775986
0.276107
0.114543
0.861083
0.796387
0.195895
0.670982
0.38353
0.481613
0.562175
0.388677
0.311876
0.209548
0.496388
0.404747
0.31255
0.539514
0.514509
0.643886
0.782026
0.810708
0.804366
0.773597
0.816239
0.690832
0.601132
0.522048
0.412059
0.583882
0.481657
0.491769
0.230964
0.134885
0.433546
0.0546364
0.521336
0.889986
0.59585
0.819465
0.176172
0.86514
0.841035
0.674349
0.800161
0.361182
0.727893
0.809062
0.606907
0.752281
0.798278
0.771053
0.0571017
0.142782
0.445096
0.898511
0.724083
0.0424881
0.789091
0.0619883
0.0290365
0.777826
0.068894
0.0777686
0.189428
0.0698579
0.98457
0.952726
1
0.98457
0.98457
0.952726
0.98457
0.98457
0.952726
0.98457
0.98457
0.952726
0.98457
0.98457
0.952726
0.98457
0.98457
0.952726
0.98457
0.98457
0.952726
1
1
1
1
0.999998
0.999208
0.808916
0.946438
0.80892
0.946343
0.855449
0.894191
0.934206
0.79303
0.964863
0.902056
0.891974
0.959154
0.405252
0.812751
0.704978
0.650072
0.938325
0.902591
0.9003
0.897128
0.962388
0.961697
0.908686
0.998185
0.994358
0.426017
0.946113
0.567913
0.937933
0.313773
0.891759
0.179371
0.930156
0.778279
0.777129
0.316312
0.19209
0.595867
0.270671
0.773737
0.817003
0.891895
0.838724
0.742985
0.935626
0.908063
0.608116
0.892663
0.788373
0.633551
0.861347
0.888877
0.22086
0.865608
0.556867
0.733219
0.943365
0.601298
0.922723
0.762071
0.934731
0.915993
0.807418
0.31554
0.9054
0.931898
0.199523
0.429092
0.94146
0.938453
0.576166
0.886373
0.442821
0.872822
0.720436
0.879363
0.953496
0.823468
0.840944
1
1
1
1
1
1
1
1
1
1
1
1
0.842102
0.867692
0.995766
0.994974
0.731677
0.731705
0.868126
0.868221
0.720544
0.731532
0.999999
0.999972
0.999514
0.999983
0.871079
0.996299
0.913137
0.999816
0.997628
0.999884
0.918499
0.806299
0.808894
0.945902
0.985727
0.999821
0.998992
0.99804
0.999998
0.999987
0.999979
0.999973
0.999951
0.851914
0.994644
0.987167
0.999904
0.999868
0.999985
0.999889
0.640752
0.735625
0.799585
0.601726
0.663934
0.796367
0.887144
0.762689
0.723701
0.499242
0.660876
0.727958
0.661377
0.868734
0.943484
0.566777
0.402065
0.255823
0.642213
0.262722
0.963317
0.895383
0.588001
0.780753
0.674759
0.775859
0.901248
0.96838
0.964257
0.911199
0.777571
0.760566
0.765151
0.446948
0.19334
0.498268
0.255171
0.396552
0.262017
0.888305
0.636933
0.582597
0.796411
0.60997
0.611186
0.910883
0.969615
0.966854
0.91577
0.809478
0.781278
0.772536
0.784244
0.614285
0.788031
0.636817
0.680099
0.956266
0.800183
0.803156
0.72608
0.762488
0.829912
0.787887
0.722412
0.647136
0.682313
0.919549
0.998614
0.910057
0.992709
0.264328
0.241526
0.310417
0.651496
0.197914
0.25631
0.41748
0.703124
0.843548
0.0556032
0.433294
0.100546
0.17206
0.123014
0.194968
0.647305
0.231093
0.498631
0.206692
0.272079
0.272637
0.206828
0.202775
0.200664
0.202187
0.275227
0.269599
0.238738
0.237552
0.422882
0.107653
0.238197
0.152759
0.152743
0.20436
0.202136
0.189047
0.204714
0.246357
0.289265
0.241677
0.272273
0.500748
0.162061
0.199187
0.132367
0.564039
0.408966
0.202005
0.21503
0.229533
0.764054
0.239312
0.240032
0.167861
0.265105
0.776492
0.76936
0.527497
0.227749
0.125787
0.185221
0.339588
0.370958
0.547433
0.235297
0.308417
0.258274
0.50803
0.330628
0.365824
0.555766
0.391956
0.187894
0.849803
0.773495
0.518212
0.262346
0.718392
0.685564
0.522032
0.391094
0.140191
0.134498
0.419905
0.511092
0.0578673
0.436832
0.257543
0.434916
0.0959242
0.0621642
0.111429
0.155745
0.174504
0.428213
0.152762
0.150702
0.314949
0.197635
0.571063
0.156399
0.205007
0.0510155
0.602974
0.308501
0.555696
0.787642
0.233617
0.412073
0.401545
0.79407
0.604059
0.207678
0.126795
0.26373
0.267511
0.731225
0.414898
0.18812
0.547141
0.208227
0.219186
0.56555
0.441495
0.415412
0.166278
0.178914
0.307993
0.204271
0.175018
0.261049
0.265377
0.233157
0.0562421
0.868487
0.745111
0.137255
0.499369
0.0615126
0.214267
0.797447
0.640441
0.411192
0.371617
0.475778
0.689026
0.27299
0.163382
0.21181
0.643015
0.310932
0.764732
0.511015
0.200293
0.200075
0.243028
0.278462
0.0273403
0.405647
0.148183
0.192448
0.510905
0.160425
0.253093
0.238938
0.834216
0.678921
0.788875
0.917572
0.637756
0.867482
0.157696
0.165566
0.055926
0.0586556
0.162074
0.0592376
0.029619
0.195314
0.102871
0.193759
0.175651
0.0580207
0.121337
0.278678
0.185849
0.0830965
0.127607
0.0499275
0.998469
0.985564
1
1
1
1
1
1
1
1
1
1
1
1
1
1
1
1
1
1
1
1
1
1
1
1
1
1
0.80892
0.946439
0.80892
0.946439
0.999978
0.999999
0.999988
0.999997
0.999999
1
0.999996
1
0.999999
1
1
1
0.946439
0.80892
0.80892
0.946439
0.987075
0.996601
1
1
1
1
0.917667
0.87341
0.953582
0.969848
1
1
0.975553
0.995994
0.988187
0.996914
0.996904
0.998189
0.999934
0.999215
0.999987
1
1
0.955044
0.974738
0.991909
0.984144
0.989322
0.99722
1
1
0.987753
0.997031
0.912839
0.912232
0.105789
0.980262
0.983621
0.951819
0.968726
0.968726
0.990348
1
0.997605
1
0.998583
1
1
0.999704
0.996292
1
0.999731
0.98457
0.98457
0.952726
0.968726
0.968726
1
1
1
1
1
1
1
1
1
1
1
1
0.98457
0.98457
0.952726
0.968726
0.968726
1
1
1
1
1
1
1
1
1
1
1
1
0.98457
0.98457
0.952726
0.968726
0.968726
1
1
1
1
1
1
1
1
1
1
1
1
0.98457
0.98457
0.952726
0.968726
0.968726
1
1
1
1
1
1
1
1
1
1
1
1
0.98457
0.98457
0.952726
0.968726
0.968726
1
1
1
1
1
1
1
1
1
1
1
1
0.98457
0.98457
0.989732
0.952726
0.968726
1
1
1
1
1
1
1
1
1
1
1
1
0.868221
0.868221
0.995769
0.995769
0.731706
0.731706
0.868221
0.868221
0.731706
0.731706
1
1
1
1
1
1
1
1
1
1
0.80892
0.946439
0.946439
0.80892
0.999974
0.99998
0.999997
0.999853
0.999514
0.999917
0.999186
0.999825
0.99986
0.80892
0.744722
0.869429
0.946437
0.80892
0.744734
0.869398
0.946425
0.999999
1
0.999989
0.999782
0.999965
0.999919
0.999999
0.999999
0.99969
0.999693
0.999674
0.999922
0.492409
0.697187
0.229875
0.646033
0.206194
0.505688
0.5031
0.244372
0.346677
0.332012
0.58448
0.315891
0.23485
0.6508
0.217061
0.543373
0.498147
0.701122
0.999973
0.999973
0.998995
0.998995
0.999998
1
0.999998
0.999973
0.999973
0.998995
0.998995
0.999998
1
0.999998
0.995768
0.995769
0.731706
0.731706
0.868221
0.868221
0.868221
0.868221
0.731706
0.731706
0.998995
0.998995
0.999998
1
0.999998
0.999973
0.999973
0.999973
0.999973
0.998995
0.998995
1
0.999998
0.999998
1
0.999818
1
1
1
1
1
1
1
1
1
1
1
1
0.999818
0.999818
1
0.80892
0.80892
0.859523
0.865845
0.955701
0.955889
0.984869
0.995747
0.98486
0.955923
0.95592
0.984409
0.995626
0.984792
0.731702
0.807067
0.731705
0.807075
0.868208
0.86822
0.803302
0.728294
0.730852
0.807026
0.990674
0.989233
0.997319
0.997738
0.999263
0.999869
0.99976
1
0.999989
0.999997
0.999915
0.999919
0.999768
1
1
1
1
0.999998
0.999998
0.946037
0.953071
0.985604
0.997673
0.996252
0.990804
0.985597
0.999998
0.999981
1
1
1
1
0.999962
0.951626
0.96839
0.999047
0.99952
0.990473
0.998804
0.990952
0.98979
0.997396
0.997785
0.999331
0.99934
0.99988
1
1
1
0.999987
0.85537
0.937336
0.737306
0.808226
0.80877
0.744651
0.943995
0.869233
1
1
1
0.999998
0.996167
0.999134
0.999899
0.99984
0.998969
0.999968
0.99972
0.998821
1
0.999997
0.999999
0.999988
0.999995
0.999986
0.979513
0.993827
0.99786
0.998889
0.999537
0.995374
0.999973
0.99997
0.95357
0.94546
0.96911
0.990676
0.985625
0.988668
0.996624
0.999428
0.999911
0.999267
0.999898
0.982752
0.968414
0.990491
0.994999
0.999998
0.999982
0.999792
0.999917
0.999995
0.999987
0.999964
0.985844
0.99936
0.999876
0.999848
0.911581
0.906749
0.968492
0.998298
0.998308
0.992328
0.998228
0.998204
0.393812
0.772887
1
1
0.759004
1
1
0.80892
0.946439
0.80892
0.946439
1
1
0.80892
0.946439
0.80892
0.946439
1
1
0.80892
0.946439
0.80892
0.946439
1
1
0.80892
0.946439
0.80892
0.946439
1
1
0.80892
0.946439
0.80892
0.946439
1
1
0.80892
0.946439
0.80892
0.946439
1
1
1
1
1
1
1
1
1
1
1
1
1
1
1
1
1
1
1
1
1
0.204057
0.737363
0.75084
0.98457
0.999843
0.999843
0.885859
0.904202
0.952726
0.81498
0.81498
0.904202
0.904202
1
1
1
0.999998
0.80892
0.80892
0.999843
0.98457
0.999843
0.98457
0.999843
0.999843
0.904202
0.904202
0.952726
0.81498
0.81498
0.904202
0.904202
1
1
0.80892
0.80892
0.946439
0.999843
0.98457
0.999843
0.98457
0.999843
0.999843
0.904202
0.904202
0.952726
0.81498
0.81498
0.904202
0.904202
1
1
0.80892
0.946439
0.80892
0.999843
0.98457
0.999843
0.98457
0.999843
0.999843
0.904202
0.904202
0.952726
0.81498
0.81498
0.904202
0.904202
1
1
0.80892
0.946439
0.80892
0.946439
0.999843
0.98457
0.999843
0.98457
0.999843
0.999843
0.904202
0.904202
0.952726
0.81498
0.81498
0.904202
0.904202
1
1
0.80892
0.80892
0.946439
0.999843
0.98457
0.999843
0.98457
0.999843
0.999843
0.904202
0.904202
0.952726
0.81498
0.81498
0.904202
0.904202
1
1
0.80892
0.80892
0.999843
0.98457
0.999843
0.999843
0.98457
0.999843
0.904202
0.904202
0.81498
0.952726
0.81498
0.962622
0.904202
1
1
0.946439
0.80892
0.80892
1
1
1
1
1
1
1
1
1
1
1
1
1
1
1
1
0.994139
0.994138
0.994108
0.994108
1
1
1
1
1
1
1
1
1
1
1
1
1
1
1
1
1
1
1
1
1
1
1
1
1
1
1
1
1
1
1
1
1
1
1
1
1
1
1
1
0.99677
0.994292
0.994108
0.994108
1
1
1
1
1
0.795878
0.865978
0.807049
0.644665
0.691195
0.730471
0.710067
1
0.862902
0.627672
0.396405
0.985501
0.696175
0.940047
0.990304
0.797161
0.6982
0.793256
0.943797
0.860918
0.808496
0.868221
0.868221
0.995769
0.995769
0.731706
0.731706
0.868221
0.868221
0.731706
0.731706
1
1
1
1
1
1
1
1
1
1
0.80892
0.946439
0.946439
0.80892
0.868221
0.868221
0.995769
0.995769
0.731706
0.731706
0.868221
0.868221
0.731706
0.731706
1
1
1
1
1
1
1
1
1
1
0.80892
0.946439
0.946439
0.80892
0.868221
0.868221
0.995769
0.995769
0.731706
0.731706
0.868221
0.868221
0.731706
0.731706
1
1
1
1
1
1
1
1
1
1
0.80892
0.946439
0.946439
0.80892
0.868221
0.868221
0.995769
0.995769
0.731706
0.731706
0.868221
0.868221
0.731706
0.731706
1
1
1
1
1
1
1
1
1
1
0.80892
0.946439
0.946439
0.80892
0.868221
0.868221
0.995769
0.995769
0.731706
0.731706
0.868221
0.868221
0.731706
0.731706
1
1
1
1
1
1
1
1
1
1
0.80892
0.946439
0.946439
0.80892
0.868221
0.868221
0.995769
0.995769
0.731706
0.731706
0.868221
0.868221
0.731706
0.731706
1
1
1
1
1
1
1
1
1
1
0.80892
0.946439
0.946439
0.80892
1
1
1
1
1
1
1
1
0.80892
0.744734
0.869429
0.946439
0.80892
0.744734
0.869429
0.946439
1
1
1
1
1
1
1
1
1
1
1
1
1
1
1
1
1
1
1
1
1
1
1
0.869429
0.946439
0.744734
0.80892
0.80892
0.744734
0.946439
0.869429
1
1
1
1
1
1
1
1
1
1
1
0.999998
0.999923
1
0.759059
0.862786
0.995953
0.88031
0.996393
0.886998
0.984567
0.999011
0.99984
0.999977
0.999977
0.999211
0.999975
0.952724
0.814777
0.814979
1
0.968726
1
1
0.968726
1
0.997023
0.904277
0.791129
0.628411
0.999999
0.826707
0.996108
0.997555
0.798212
0.919237
1
0.792572
0.86822
0.867737
0.995769
0.995768
0.731705
0.731706
0.731705
0.731445
0.868221
0.868221
0.999345
0.999971
0.998995
0.998995
0.999999
0.999998
0.999997
0.998383
0.998994
0.999493
0.999989
0.999996
0.999973
0.999973
1
0.863724
0.941057
0.99628
0.99998
1
1
0.999999
0.999998
0.997596
0.999999
0.999989
0.99998
1
0.999818
1
0.80892
0.945871
0.808834
0.946437
0.999977
0.999977
0.98457
0.999843
0.999843
0.999977
0.999977
0.98457
0.999843
0.999843
0.999977
0.999977
0.999977
0.999977
0.952726
0.81498
0.81498
1
0.968726
1
1
0.968726
1
0.999973
0.999973
0.998995
0.998995
0.999998
1
0.999998
0.999973
0.999973
0.999998
1
0.999998
0.868221
0.868221
0.995769
0.995769
0.731706
0.731706
0.731706
0.731706
0.868221
0.868221
0.999973
0.999973
0.998995
0.998995
1
0.999998
0.999998
0.999998
1
0.999998
0.999973
0.999973
1
0.999818
0.999818
1
1
1
1
1
1
1
1
1
1
1
1
0.999818
1
0.80892
0.946439
0.80892
0.999977
0.999977
0.98457
0.999843
0.999843
0.999977
0.999977
0.98457
0.999843
0.999843
0.999977
0.999977
0.999977
0.999977
0.952726
0.81498
0.81498
1
0.968726
1
1
0.968726
1
0.999973
0.999973
0.998995
0.998995
0.999998
1
0.999998
0.999973
0.999973
0.999998
1
0.999998
0.868221
0.868221
0.995769
0.995769
0.731706
0.731706
0.731706
0.731706
0.868221
0.868221
0.999973
0.999973
0.998995
0.998995
1
0.999998
0.999998
0.999998
1
0.999998
0.999973
0.999973
1
1
1
1
1
1
1
1
1
1
1
1
1
0.999818
1
0.80892
0.80892
0.946439
0.999977
0.999977
0.98457
0.999843
0.999843
0.999977
0.999977
0.98457
0.999843
0.999843
0.999977
0.999977
0.999977
0.999977
0.952726
0.81498
0.81498
1
0.968726
1
1
0.968726
1
0.999973
0.999973
0.998995
0.998995
0.999998
1
0.999998
0.999973
0.999973
0.998995
0.999998
1
0.999998
0.868221
0.868221
0.995769
0.995769
0.731706
0.731706
0.731706
0.731706
0.868221
0.868221
0.999973
0.999973
0.998995
0.998995
1
0.999998
0.999998
0.999998
1
0.999998
0.999973
0.999973
1
0.999818
1
1
1
1
1
1
1
1
1
1
1
1
1
0.80892
0.946439
0.80892
0.946439
0.999977
0.999977
0.98457
0.999843
0.999843
0.999977
0.999977
0.98457
0.999843
0.999843
0.999977
0.999977
0.999977
0.999977
0.952726
0.81498
0.81498
1
0.968726
1
1
0.968726
1
0.999973
0.999973
0.998995
0.998995
0.999998
1
0.999998
0.999973
0.999973
0.998995
0.999998
1
0.999998
0.868221
0.868221
0.995769
0.995769
0.731706
0.731706
0.731706
0.731706
0.868221
0.868221
0.999973
0.999973
0.998995
0.998995
1
0.999998
0.999998
0.998995
0.998995
0.999998
1
0.999998
0.999973
0.999973
1
0.999818
1
1
1
1
1
1
1
1
1
1
1
1
0.999818
0.999818
1
0.80892
0.80892
0.946439
0.999977
0.999977
0.98457
0.999843
0.999843
0.999977
0.999977
0.98457
0.999843
0.999843
0.999977
0.999977
0.999977
0.999977
0.952726
0.81498
0.81498
1
0.968726
1
1
0.968726
1
0.999973
0.999973
0.998995
0.998995
0.999998
1
0.999998
0.999973
0.999973
0.999998
1
0.999998
0.868221
0.868221
0.995769
0.995769
0.731706
0.731706
0.731706
0.731706
0.868221
0.868221
0.999973
0.999973
0.998995
0.998995
1
0.999998
0.999998
0.998995
0.999998
1
0.999998
0.999973
0.999973
1
0.999818
1
1
1
1
1
1
1
1
1
1
1
1
0.999818
1
0.80892
0.80892
0.999977
0.999977
0.98457
0.999843
0.999843
0.999977
0.999977
0.999977
0.999977
0.98457
0.999843
0.999843
0.999977
0.999977
1
0.968916
1
0.952726
0.81498
0.81498
0.968767
1
1
0.999973
0.999973
0.998995
0.998995
0.999998
1
0.999998
0.999973
0.999973
0.998995
0.998995
0.999998
1
0.999998
0.995769
0.995769
0.731706
0.731706
0.868221
0.868221
0.868221
0.868221
0.731706
0.731706
0.998995
0.998995
0.999998
1
0.999998
0.999973
0.999973
0.999973
0.999973
0.998995
0.998995
1
0.999998
0.999998
1
0.999818
0.999818
1
1
1
1
1
1
1
1
1
1
1
1
1
0.80892
0.946439
0.80892
0.868221
0.868221
0.955924
0.955924
0.98487
0.995769
0.98487
0.955924
0.955924
0.98487
0.995769
0.98487
0.731706
0.807075
0.731706
0.807075
0.868221
0.868221
0.807075
0.731706
0.731706
0.807075
1
1
1
1
1
1
1
1
1
1
1
1
1
1
1
1
1
1
1
1
1
1
1
1
1
1
1
1
1
1
1
1
1
1
1
1
1
1
1
1
1
1
1
1
1
1
0.999996
0.999996
0.994112
0.994135
0.744734
0.80892
0.946439
0.869429
0.869429
0.946439
0.80892
0.744734
0.999996
0.999996
0.994108
0.994108
0.999973
0.999973
0.999978
0.99986
0.998995
0.999978
0.99986
0.998995
1
0.999998
1
1
0.999998
1
1
1
1
1
1
1
1
0.999973
0.999973
0.999978
0.99986
0.99986
0.999978
1
0.999998
1
1
0.999998
1
0.98487
0.995769
0.98487
0.955924
0.955924
0.955924
0.955924
0.995769
0.98487
0.98487
0.807075
0.731706
0.731706
0.807075
0.868221
0.868221
0.868221
0.868221
0.807075
0.731706
0.731706
0.807075
0.99986
0.998995
0.999978
0.999978
0.99986
0.998995
1
0.999998
1
1
0.999998
1
0.999973
0.999973
0.999973
0.999973
1
1
1
1
1
1
1
0.999978
0.99986
0.998995
0.999978
0.99986
1
1
1
0.999998
1
0.999998
0.999997
1
1
0.999997
0.999997
1
1
0.999997
1
0.999997
1
1
1
1
1
1
1
1
1
1
1
1
1
1
1
1
1
1
1
1
1
1
1
1
1
1
1
1
1
1
1
1
1
1
1
1
1
1
1
1
1
1
1
1
1
1
1
1
1
1
1
1
0.999997
0.999818
0.999818
1
0.999997
0.999997
1
0.999997
1
0.999997
1
1
1
0.999996
0.999996
0.994112
0.99417
0.80892
0.744734
0.869429
0.80892
0.744734
0.869429
0.999996
0.999996
0.994108
0.994108
1
1
1
1
1
1
1
1
1
1
1
1
1
1
1
0.208684
0.96094
0.629341
1
1
1
1
1
1
1
1
1
1
1
1
1
1
1
1
1
1
1
1
1
1
1
1
1
1
1
0.98457
0.995877
0.995877
0.952726
0.8811
0.8811
0.851992
0.989044
0.734736
1
1
1
1
1
1
1
1
1
1
1
0.995877
0.98457
0.995877
0.98457
0.995877
0.995877
0.952726
0.8811
0.8811
1
1
1
1
1
1
1
1
1
1
1
1
0.995877
0.98457
0.995877
0.98457
0.995877
0.995877
0.952726
0.8811
0.8811
1
1
1
1
1
1
1
1
1
1
1
1
0.995877
0.98457
0.995877
0.98457
0.995877
0.995877
0.952726
0.8811
0.8811
1
1
1
1
1
1
1
1
1
1
1
1
0.995877
0.98457
0.995877
0.98457
0.995877
0.995877
0.952726
0.8811
0.8811
1
1
1
1
1
1
1
1
1
1
1
1
0.995877
0.98457
0.995877
0.98457
0.995877
0.995877
0.952726
0.8811
0.8811
1
1
1
1
1
1
1
1
1
1
1
1
0.995877
0.98457
0.995877
0.995877
0.98457
0.995877
0.8811
0.952726
0.8811
1
1
1
1
1
1
1
1
1
1
1
1
1
1
1
1
1
1
1
1
1
0.987287
0.996709
0.809076
0.952362
0.990129
0.967246
0.985292
0.99362
0.997363
0.945654
0.952939
0.991074
0.993994
0.994108
0.994108
1
1
1
1
1
1
1
1
1
1
1
1
1
1
1
1
0.994108
0.994108
0.994108
0.994108
1
1
1
1
1
1
1
1
1
1
1
1
1
1
1
1
0.994108
0.994108
0.994108
0.994108
1
1
1
1
1
1
1
1
1
1
1
1
1
1
1
1
0.994108
0.994108
0.994108
0.994108
1
1
1
1
1
1
1
1
1
1
1
1
1
1
1
1
1
0.994108
0.994108
0.994108
0.994108
1
1
1
1
1
1
1
1
1
1
1
1
1
1
1
1
1
0.994108
0.994108
0.994108
0.994108
1
1
1
1
1
1
1
1
1
1
1
1
1
1
1
1
1
0.994108
0.994108
0.994108
0.994108
0.968556
0.99156
0.979735
0.9844
0.994933
0.995708
0.952562
0.88032
0.880956
0.999675
0.968726
0.999675
0.999675
0.968726
0.999675
0.725407
0.985414
0.994142
0.9795
0.996115
0.9946
0.967853
1
1
0.999852
0.998627
0.999156
0.999737
1
1
0.998731
0.999511
1
0.835885
0.842375
0.99397
0.998077
0.999878
0.9993
0.999176
0.997534
0.996189
0.999491
1
1
1
1
0.999432
0.999954
0.999036
0.999207
0.995596
1
1
1
1
0.99961
0.999959
0.994108
0.994108
0.994108
0.994108
0.98457
0.995877
0.995877
0.98457
0.995877
0.995877
0.952726
0.8811
0.8811
0.999675
0.968726
0.999675
0.999675
0.968726
0.999675
1
1
1
1
1
1
1
1
1
1
1
1
1
1
1
1
1
1
1
1
1
1
1
1
1
1
1
1
1
1
1
1
1
1
1
1
1
1
1
1
1
1
0.994108
0.994108
0.994108
0.994108
0.98457
0.995877
0.995877
0.98457
0.995877
0.995877
0.952726
0.8811
0.8811
0.999675
0.968726
0.999675
0.999675
0.968726
0.999675
1
1
1
1
1
1
1
1
1
1
1
1
1
1
1
1
1
1
1
1
1
1
1
1
1
1
1
1
1
1
1
1
1
1
1
1
1
1
1
1
1
0.994108
0.994108
0.994108
0.994108
0.98457
0.995877
0.995877
0.98457
0.995877
0.995877
0.952726
0.8811
0.8811
0.999675
0.968726
0.999675
0.999675
0.968726
0.999675
1
1
1
1
1
1
1
1
1
1
1
1
1
1
1
1
1
1
1
1
1
1
1
1
1
1
1
1
1
1
1
1
1
1
1
1
1
1
1
1
0.994108
0.994108
0.994108
0.994108
0.98457
0.995877
0.995877
0.98457
0.995877
0.995877
0.952726
0.8811
0.8811
0.999675
0.968726
0.999675
0.999675
0.968726
0.999675
1
1
1
1
1
1
1
1
1
1
1
1
1
1
1
1
1
1
1
1
1
1
1
1
1
1
1
1
1
1
1
1
1
1
1
1
1
1
1
1
0.994108
0.994108
0.994108
0.994108
0.98457
0.995877
0.995877
0.98457
0.995877
0.995877
0.952726
0.8811
0.8811
0.999675
0.968726
0.999675
0.999675
0.968726
0.999675
1
1
1
1
1
1
1
1
1
1
1
1
1
1
1
1
1
1
1
1
1
1
1
1
1
1
1
1
1
1
1
1
1
1
1
1
1
1
1
1
1
0.994108
0.994108
0.994108
0.994108
0.98457
0.995877
0.995877
0.98457
0.995877
0.995877
0.999939
0.97904
0.999807
0.952726
0.8811
0.8811
0.968726
0.999675
0.999675
1
1
1
1
1
1
1
1
1
1
1
1
1
1
1
1
1
1
1
1
1
1
1
1
1
1
1
1
1
1
1
1
1
1
1
1
1
1
1
1
1
0.994139
0.994128
0.994108
0.994108
1
1
1
1
1
1
1
1
1
1
1
0.189795
0.6215
0.477285
0.39571
0.262915
0.655291
0.879759
1
1
1
0.894973
0.732461
0.741905
1
1
1
1
1
1
1
1
1
0.80892
0.744734
0.869429
0.946439
0.80892
0.744734
0.869429
0.946439
1
1
1
1
1
1
1
0.80892
0.744734
0.869429
0.946439
0.80892
0.744734
0.869429
0.946439
1
1
1
1
1
1
1
1
0.80892
0.744734
0.869429
0.946439
0.80892
0.744734
0.869429
0.946439
1
1
1
1
1
1
1
1
0.80892
0.744734
0.869429
0.946439
0.80892
0.744734
0.869429
0.946439
1
1
1
1
1
1
1
1
0.80892
0.744734
0.869429
0.946439
0.80892
0.744734
0.869429
0.946439
1
1
1
1
1
1
1
1
1
0.80892
0.744734
0.869429
0.946439
0.80892
0.744734
0.869429
0.946439
0.806368
0.743418
0.808714
0.812058
0.746586
0.810038
0.98457
0.995876
0.995877
0.999104
0.999843
0.999104
0.999104
0.999843
0.999104
0.904198
0.904201
0.952727
0.8811
0.8811
0.754415
0.81498
0.754415
0.754415
0.81498
0.754415
0.904202
0.904202
0.783807
0.80144
0.999999
0.999902
0.73488
0.73604
0.600843
0.766174
1
1
0.99999
1
1
1
1
1
1
1
1
1
1
1
1
0.999999
1
0.999997
1
1
1
0.80892
0.744734
0.869429
0.80892
0.744734
0.869429
0.946439
0.999104
0.999843
0.999104
0.98457
0.995877
0.995877
0.999843
0.999104
0.999104
0.98457
0.995877
0.995877
0.999104
0.999843
0.999104
0.999104
0.999843
0.999104
0.904202
0.904202
0.952726
0.8811
0.8811
0.754415
0.81498
0.754415
0.754415
0.81498
0.754415
0.904202
0.904202
1
1
1
1
1
1
1
1
1
1
1
1
1
1
1
1
1
1
1
1
1
0.80892
0.744734
0.869429
0.80892
0.744734
0.869429
0.946439
0.999104
0.999843
0.999104
0.98457
0.995877
0.995877
0.999843
0.999104
0.999104
0.98457
0.995877
0.995877
0.999104
0.999843
0.999104
0.999104
0.999843
0.999104
0.904202
0.904202
0.952726
0.8811
0.8811
0.754415
0.81498
0.754415
0.754415
0.81498
0.754415
0.904202
0.904202
1
1
1
1
1
1
1
1
1
1
1
1
1
1
1
1
1
1
1
1
1
1
1
1
0.80892
0.744734
0.869429
0.80892
0.744734
0.869429
0.946439
0.999104
0.999843
0.999104
0.98457
0.995877
0.995877
0.999843
0.999104
0.999104
0.98457
0.995877
0.995877
0.999104
0.999843
0.999104
0.999104
0.999843
0.999104
0.904202
0.904202
0.952726
0.8811
0.8811
0.754415
0.81498
0.754415
0.754415
0.81498
0.754415
0.904202
0.904202
1
1
1
1
1
1
1
1
1
1
1
1
1
1
1
1
1
1
1
1
1
1
1
1
1
0.80892
0.744734
0.869429
0.80892
0.744734
0.869429
0.999104
0.999843
0.999104
0.98457
0.995877
0.995877
0.999843
0.999104
0.999104
0.98457
0.995877
0.995877
0.999104
0.999843
0.999104
0.999104
0.999843
0.999104
0.904202
0.904202
0.952726
0.8811
0.8811
0.754415
0.81498
0.754415
0.754415
0.81498
0.754415
0.904202
0.904202
1
1
1
1
1
1
1
1
1
1
1
1
1
1
1
1
1
1
1
1
1
1
1
0.80892
0.744734
0.869429
0.946439
0.80892
0.744734
0.869429
0.946439
0.999104
0.999843
0.999104
0.98457
0.995877
0.995877
0.999843
0.999104
0.999104
0.98457
0.995877
0.995877
0.999104
0.999843
0.999104
0.999104
0.999843
0.999104
0.904202
0.904202
0.952726
0.8811
0.8811
0.754415
0.81498
0.754415
0.754415
0.81498
0.754415
0.904202
0.904202
1
1
1
1
1
1
1
1
1
1
1
1
1
1
1
1
1
1
1
0.80892
0.744734
0.869429
0.80892
0.744734
0.869429
0.999104
0.999843
0.999104
0.98457
0.995877
0.995877
0.999843
0.999104
0.999104
0.999104
0.999843
0.999104
0.98457
0.995877
0.995877
0.999843
0.999104
0.999104
0.904202
0.904202
0.754415
0.81498
0.754415
0.952726
0.8811
0.8811
0.81498
0.754415
0.754415
0.904726
0.90432
1
1
1
1
1
1
1
1
1
1
1
1
1
1
1
1
1
1
1
1
1
1
1
0.869429
0.946439
0.744734
0.80892
0.80892
0.744734
0.869429
1
1
1
1
1
1
1
1
1
1
1
1
1
0.999727
1
1
1
1
1
1
1
1
1
1
1
1
0.999854
0.999733
0.999726
0.840836
0.859615
0.754689
0.819365
0.769813
1
0.883171
0.789622
0.670509
0.724554
0.774499
0.579286
0.796944
0.845131
0.792092
0.716313
0.726899
0.806646
0.77232
1
1
0.985502
0.994145
0.979519
0.996136
0.959516
0.893349
0.904882
0.801917
0.739288
0.83673
0.605079
0.768484
0.260023
0.203221
0.277694
0.964809
0.641577
0.869769
0.794754
0.697186
0.90981
0.945492
0.952678
0.869882
0.978386
0.922095
0.994673
0.967683
0.877388
0.910839
0.952419
0.990133
0.96726
0.985309
0.850808
0.870719
0.821419
0.76756
1
1
1
0.999989
0.852135
0.989877
0.736193
0.792415
0.999999
0.9999
0.999996
0.999996
0.994108
0.994082
0.704421
0.803227
0.936276
0.867486
0.805903
0.914064
0.807208
0.743582
0.999996
0.999996
0.994108
0.994108
0.868221
0.868221
0.955924
0.955924
0.98487
0.995769
0.98487
0.955924
0.955924
0.98487
0.995769
0.98487
0.731706
0.807075
0.731706
0.807075
0.868221
0.868221
0.807075
0.731706
0.731706
0.807075
1
1
1
1
1
1
1
1
1
1
1
1
1
1
1
1
1
1
1
1
1
1
1
1
1
1
1
1
1
1
1
1
1
1
1
1
1
1
1
1
1
1
1
1
1
1
1
1
0.999996
0.999996
0.994108
0.994108
0.744734
0.80892
0.946439
0.869429
0.869429
0.946439
0.80892
0.744734
0.999996
0.999996
0.994108
0.994108
0.868221
0.868221
0.955924
0.955924
0.98487
0.995769
0.98487
0.955924
0.955924
0.98487
0.995769
0.98487
0.731706
0.807075
0.731706
0.807075
0.868221
0.868221
0.807075
0.731706
0.731706
0.807075
1
1
1
1
1
1
1
1
1
1
1
1
1
1
1
1
1
1
1
1
1
1
1
1
1
1
1
1
1
1
1
1
1
1
1
1
1
1
1
1
1
1
1
1
1
1
1
1
0.999996
0.999996
0.994108
0.994108
0.744734
0.80892
0.946439
0.869429
0.869429
0.946439
0.80892
0.744734
0.999996
0.999996
0.994108
0.994108
0.868221
0.868221
0.955924
0.955924
0.98487
0.995769
0.98487
0.955924
0.955924
0.98487
0.995769
0.98487
0.731706
0.807075
0.731706
0.807075
0.868221
0.868221
0.807075
0.731706
0.731706
0.807075
1
1
1
1
1
1
1
1
1
1
1
1
1
1
1
1
1
1
1
1
1
1
1
1
1
1
1
1
1
1
1
1
1
1
1
1
1
1
1
1
1
1
1
1
1
1
0.999996
0.999996
0.994108
0.994108
0.744734
0.80892
0.946439
0.869429
0.869429
0.946439
0.80892
0.744734
0.999996
0.999996
0.994108
0.994108
0.868221
0.868221
0.955924
0.955924
0.98487
0.995769
0.98487
0.955924
0.955924
0.98487
0.995769
0.98487
0.731706
0.807075
0.731706
0.807075
0.868221
0.868221
0.807075
0.731706
0.731706
0.807075
1
1
1
1
1
1
1
1
1
1
1
1
1
1
1
1
1
1
1
1
1
1
1
1
1
1
1
1
1
1
1
1
1
1
1
1
1
1
1
1
1
1
1
1
1
1
0.999996
0.999996
0.994108
0.994108
0.744734
0.80892
0.946439
0.869429
0.869429
0.946439
0.80892
0.744734
0.999996
0.999996
0.994108
0.994108
0.868221
0.868221
0.955924
0.955924
0.98487
0.995769
0.98487
0.955924
0.955924
0.98487
0.995769
0.98487
0.731706
0.807075
0.731706
0.807075
0.868221
0.868221
0.807075
0.731706
0.731706
0.807075
1
1
1
1
1
1
1
1
1
1
1
1
1
1
1
1
1
1
1
1
1
1
1
1
1
1
1
1
1
1
1
1
1
1
1
1
1
1
1
1
1
1
1
1
1
1
1
1
0.999996
0.999996
0.994108
0.994108
0.744734
0.80892
0.946439
0.869429
0.869429
0.946439
0.80892
0.744734
0.999996
0.999996
0.994108
0.994108
0.868221
0.868221
0.955924
0.955924
0.98487
0.995769
0.98487
0.955924
0.955924
0.98487
0.995769
0.98487
0.731706
0.807075
0.731706
0.807075
0.868221
0.868221
0.807075
0.731706
0.731706
0.807075
1
1
1
1
1
1
1
1
1
1
1
1
1
1
1
1
1
1
1
1
1
1
1
1
1
1
1
1
1
1
1
1
1
1
1
1
1
1
1
1
1
1
1
1
1
1
0.999996
0.999996
0.994108
0.994108
0.744734
0.80892
0.946439
0.869429
0.869429
0.946439
0.80892
0.744734
0.999996
0.999996
0.994108
0.994108
0.816493
0.935775
0.871908
0.946432
0.994932
0.984973
0.983358
0.876021
0.953256
0.950432
0.98622
0.956537
0.984545
0.995874
0.995852
0.9982
0.999698
0.998945
0.999101
0.999822
0.999081
0.999977
0.999977
0.999843
0.999958
0.952702
0.881097
0.881078
0.753893
0.814942
0.754318
0.754413
0.814974
0.7544
0.999953
1
0.999953
0.968726
0.999675
0.999675
1
0.999953
0.999953
0.999953
1
0.999953
0.968726
0.999675
0.999675
1
0.999953
0.999953
0.988569
0.963624
0.724998
0.886642
0.829829
0.760412
0.881484
0.815649
0.555956
0.763101
0.830886
0.820967
0.694019
0.955146
0.861422
0.88685
0.941085
0.986987
0.99663
0.96512
0.988482
0.987786
0.963023
0.963088
0.989288
0.996998
0.990396
0.911348
0.87501
0.969211
0.913008
1
1
1
0.809688
0.868209
0.868135
0.955924
0.955924
0.98487
0.995769
0.98487
0.955924
0.955924
0.98487
0.995769
0.98487
0.731706
0.807075
0.731706
0.807075
0.731699
0.807075
0.73166
0.806988
0.868221
0.868221
0.999864
0.999958
0.999979
0.999995
0.999998
0.999959
0.999876
0.999284
0.999978
0.99986
0.998995
0.99986
0.998995
0.999978
1
1
1
0.999998
1
0.999998
0.999966
0.999755
0.999886
0.999845
0.999353
0.999914
0.999918
0.999995
0.999986
0.999998
0.999973
0.999973
0.966013
0.99089
0.969805
0.989672
1
1
1
0.742532
0.843828
0.814639
0.802289
0.815674
0.979134
0.929845
0.758328
0.772884
0.680621
0.861988
0.999852
0.998627
0.99916
0.999737
0.999983
0.999998
0.999852
0.999988
0.999978
0.999914
0.999035
0.999205
0.995588
0.999859
1
1
1
1
1
1
1
1
0.999997
1
1
1
1
0.998745
0.99951
0.999995
0.999999
0.999918
0.999995
0.999177
0.997535
0.996193
0.999492
0.999824
0.99986
0.999973
1
1
1
1
1
1
1
0.999986
0.999927
0.999909
0.99999
1
1
0.999995
0.999999
0.999995
0.999997
1
1
0.999997
0.808918
0.744734
0.869018
0.946338
0.808906
0.744497
0.869428
0.946424
0.999996