/*--------------------------------*- C++ -*----------------------------------*\
| =========                 |                                                 |
| \\      /  F ield         | OpenFOAM: The Open Source CFD Toolbox           |
|  \\    /   O peration     | Version:  2306                                  |
|   \\  /    A nd           | Website:  www.openfoam.com                      |
|    \\/     M anipulation  |                                                 |
\*---------------------------------------------------------------------------*/
FoamFile
{
    version     2.0;
    format      ascii;
    arch        "LSB;label=32;scalar=64";
    class       volScalarField;
    location    "0";
    object      thickness;
}
// * * * * * * * * * * * * * * * * * * * * * * * * * * * * * * * * * * * * * //

dimensions      [0 0 0 0 0 0 0];

internalField   uniform 0;

boundaryField
{
    walls
    {
        type            fixedValue;
        value           uniform 0;
    }
    inlet
    {
        type            fixedValue;
        value           uniform 0;
    }
    outlet
    {
        type            fixedValue;
        value           uniform 0;
    }
    NASA
    {
        type            fixedValue;
        value           nonuniform List<scalar> 
20963
(
0
0
0
0
0
0
0
0
0
0
0
0
0
0
0
0
0
0
0
0
0
0
0
0
0
0
0
0
0
0
0
0
0
0
0
0
0
0
0
0
0
0
0
0
0
0
0
0
0
0
0
0
0
0
0
0
0
0
0
0
0
0
0
0
0
0
0
0
0
0
0
0
0
0
0
0
0
0
0
0
0
0
0
0
0
0
0
0
0
0
0
0
0
0
0
0
0
0
0
0
0
0
0
0
0
0
0
0
0
0
0
0
0
0
0
0
0
0
0
0
0
0
0
0
0
0
0
0
0
0
0
0
0
0
0
0
0
0
0
0
0
0
0
0
0
0
0
0
0
0
0
0
0
0
0
0
0
0
0
0
0
0
0
0
0
0
0
0
0
0
0
0
0
0
0
0
0
0
0
0
0
0
0
0
0
0
0
0
0
0
0
0
0
0
0
0
0
0
0
0
0
0
0
0
0
0
0
0
0
0
0
0
0
0
0
0
0
0
0
0
0
0
0
0
0
0
0
0
0
0
0
0
0
0
0
0
0
0
0
0
0
0
0
0
0
0
0
0
0
0
0
0
0
0
0
0
0
0
0
0
0
0
0
0
0
0
0
0
0
0
0
0
0
0
0
0
0
0
0
0
0
0
0
0
0
0
0
0
0
0
0
0
0
0
0
0
0
0
0
0
0
0
0
0
0
0
0
0
0
0
0
0
0
0
0
0
0
0
0
0
0
0
0
0
0
0
0
0
0
0
0
0
0
0
0
0
0
0
0
0
0
0
0
0
0
0
0
0
0
0
0
0
0
0
0
0
0
0
0
0
0
0
0
0
0
0
0
0
0
0
0
0
0
0
0
0
0
0
0
0
0
0
0
0
0
0
0
0
0
0
0
0
0
0
0
0
0
0
0
0
0
0
0
0
0
0
0
0
0
0
0
0
0
0
0
0
0
0
0
0
0
0
0
0
0
0
0
0
0
0
0.0098945
0.0190719
0.018998
0.0190258
0.0190923
0.00799308
0.00800523
0.0075944
0.00799
0.00751661
0.00766705
0.00756657
0.00574418
0.00791213
0.00789002
0.00673569
0.00812188
0.00806035
0.019789
0.019789
0.0195148
0.0195515
0.019789
0.01957
0.019789
0.0195662
0.00966044
0.0159017
0.00983542
0.0138837
0.0189161
0.0105231
0.0128373
0.0189916
0.0116292
0.0109511
0.0138267
0.0158858
0.0123919
0.00901506
0.0111789
0.0111978
0.00960183
0.0110926
0.00996922
0.00783878
0.00597822
0.00802365
0.00744878
0.0051467
0.00617336
0.00860137
0.00136092
0.00777651
0.0078041
0.00647894
0.000542537
0.00443604
0.00132539
0.00209974
0.00809218
0.00315611
0.00853112
0.00175874
0.00741596
0.00799315
0.00692107
0.00750773
0.00799048
0.00761938
0.00784046
0.00673057
0.00133043
0.00347641
0.00107633
0.0055204
0.00790545
0.00665443
0.00497175
0.00784958
0.00286157
0.00430001
0.00662128
0.00619791
0.00477575
0.001125
0.00375131
0.00169575
0.000884881
0.000441246
0.00698401
0.00738924
0.004791
0.00815923
0.000519596
0.00810134
0.00181306
0.00767799
0.00204895
0.000566674
0.00851999
0.00787985
0.00193829
0.00663904
0.00189742
0.00612684
0.00556244
0.00448673
0.00308586
0.00207337
0.00491151
0.00560668
0.0023194
0.00533822
0.00593928
0.00637094
0.00773776
0.00802155
0.00795881
0.00765436
0.00807628
0.00683544
0.00594791
0.00516541
0.00570797
0.00577722
0.00476575
0.00567677
0.00228528
0.00133462
0.00214486
0.0005406
0.00663217
0.00880597
0.00589564
0.00810819
0.00174313
0.00856012
0.00832162
0.00667235
0.00791719
0.00428846
0.00720214
0.00800527
0.00600504
0.00744344
0.00789856
0.00762919
0.000564993
0.00141276
0.00440401
0.00889032
0.00716444
0.000420398
0.00780766
0.000306672
0.000287302
0.0076962
0.000681672
0.000769482
0.00187429
0.000691209
0.0194837
0.0188535
0.0098945
0.0194837
0.0194837
0.0188535
0.0194837
0.0194837
0.0188535
0.0194837
0.0194837
0.0188535
0.0194837
0.0194837
0.0188535
0.0194837
0.0194837
0.0188535
0.0194837
0.0194837
0.0188535
0.019789
0.019789
0.019789
0.019789
0.019789
0.0197733
0.0112054
0.0187291
0.0112054
0.0187272
0.0169285
0.0176952
0.018487
0.0156933
0.0190937
0.0178508
0.0176513
0.0189807
0.00801953
0.0160835
0.0139508
0.0128643
0.0185685
0.0178614
0.017816
0.0177533
0.0190447
0.019031
0.017982
0.00987654
0.00983868
0.00421522
0.00936132
0.00561921
0.00928038
0.00310463
0.00882351
0.00177479
0.00920343
0.00770068
0.00768931
0.00312975
0.00190064
0.00589581
0.00133908
0.00765574
0.00808384
0.00882486
0.00829876
0.00735147
0.00925756
0.00898484
0.006017
0.00883245
0.00780056
0.00626868
0.0085226
0.00879499
0.0021853
0.00856476
0.00550992
0.00725484
0.00933413
0.00594955
0.00912988
0.00754031
0.0092487
0.0090633
0.007989
0.00312211
0.00895848
0.00922066
0.00197418
0.00424565
0.00931528
0.00928553
0.00570088
0.00877022
0.0043815
0.00863614
0.00712835
0.00870086
0.00943436
0.00814781
0.00832072
0.019789
0.019789
0.019789
0.019789
0.019789
0.019789
0.019789
0.019789
0.019789
0.019789
0.019789
0.019789
0.0166644
0.0171708
0.0197052
0.0196895
0.0144792
0.0144797
0.0171794
0.0171812
0.0142589
0.0144763
0.019789
0.0197884
0.0197794
0.0197887
0.0172378
0.0197158
0.0180701
0.0197854
0.0197421
0.0197867
0.0181762
0.0111691
0.011205
0.0187185
0.0195066
0.0197855
0.0197691
0.0197502
0.019789
0.0197887
0.0197886
0.0197885
0.019788
0.0168585
0.019683
0.019535
0.0197871
0.0197864
0.0197887
0.0197868
0.0126798
0.0145573
0.0094938
0.0119076
0.0131386
0.0110315
0.0175557
0.0150929
0.0102295
0.00987951
0.0104625
0.0144056
0.013088
0.0171914
0.0186706
0.00981397
0.00795648
0.00506249
0.0127087
0.0036393
0.0190631
0.0177187
0.0116359
0.0154503
0.0116837
0.0153535
0.0178348
0.0191633
0.0190817
0.0180317
0.0107712
0.0150508
0.0108154
0.00773908
0.00382601
0.00986023
0.00504958
0.00784737
0.00362954
0.0175787
0.0126043
0.011529
0.0157602
0.0105619
0.00967581
0.0180255
0.0191877
0.0191331
0.0181222
0.0106792
0.0154607
0.0152877
0.00931165
0.00972488
0.0155943
0.012602
0.0134585
0.0189236
0.0110844
0.0158937
0.0100579
0.0105622
0.0164231
0.010914
0.0142958
0.0112054
0.0135023
0.00909847
0.00988079
0.00900456
0.00982236
0.00196155
0.00179233
0.00230356
0.00644623
0.00195826
0.00152164
0.00206538
0.00695706
0.00834648
0.000550166
0.00428723
0.000994848
0.00170245
0.00121716
0.00192911
0.00640476
0.00228655
0.00493371
0.00204512
0.00201906
0.00202321
0.00204646
0.00200636
0.00198547
0.00200054
0.00204243
0.00200066
0.00177164
0.00176284
0.0041842
0.000532588
0.00235684
0.00113361
0.00151132
0.00202204
0.00200003
0.00187052
0.00202555
0.00146255
0.00143107
0.00179345
0.00202051
0.00495466
0.00160351
0.00197086
0.0013097
0.00558088
0.00404651
0.00149906
0.00159571
0.00136267
0.00755994
0.00236788
0.0011875
0.000415226
0.00262308
0.00768301
0.00761244
0.00521932
0.00225346
0.00031115
0.00183267
0.00168003
0.00146818
0.00541658
0.00174611
0.00305163
0.00127775
0.0050267
0.0016357
0.00180982
0.00549903
0.00290866
0.00139434
0.00840838
0.00765335
0.00512745
0.00194684
0.00710813
0.00678331
0.00516525
0.00193484
0.00138712
0.00133079
0.00207738
0.005057
0.000572569
0.00432224
0.00254826
0.00430327
0.000949122
0.000615084
0.00110253
0.00154102
0.00172663
0.00423695
0.0015115
0.00149112
0.00311627
0.0019555
0.00565038
0.00154749
0.00202844
0.000504773
0.00596613
0.00305246
0.00549834
0.00779333
0.00231153
0.00203863
0.00198654
0.00785693
0.00597687
0.00205487
0.00125457
0.00195711
0.00198517
0.00723511
0.00410521
0.00186136
0.00541369
0.00154523
0.00130124
0.00559584
0.00218419
0.0041103
0.00164524
0.00177027
0.00304744
0.00202116
0.00173172
0.00193721
0.00196933
0.00230698
0.000556487
0.00859324
0.0073725
0.00135806
0.00494101
0.000608636
0.00212007
0.00789034
0.00633684
0.00406854
0.00367697
0.00470758
0.00681757
0.00202582
0.00161658
0.00209576
0.00636231
0.00230739
0.00756665
0.00505624
0.0019818
0.00197964
0.00180348
0.00206644
0.000270519
0.00401368
0.0014662
0.00190418
0.00505515
0.00158732
0.00250423
0.00236417
0.00825415
0.00671758
0.00780552
0.00907892
0.00631028
0.00858331
0.00156032
0.00122865
0.00055336
0.000580367
0.00160365
0.000586127
0.000293066
0.00193253
0.00101786
0.00191715
0.00130349
0.000287043
0.00120057
0.00275738
0.00183888
0.000616649
0.0012626
0.000494008
0.0197587
0.0195033
0.019789
0.019789
0.019789
0.019789
0.019789
0.019789
0.019789
0.019789
0.019789
0.019789
0.019789
0.019789
0.019789
0.019789
0.019789
0.019789
0.019789
0.019789
0.019789
0.019789
0.019789
0.019789
0.019789
0.019789
0.019789
0.019789
0.0112054
0.0187291
0.0112054
0.0187291
0.0197886
0.019789
0.0197888
0.019789
0.019789
0.019789
0.0197889
0.019789
0.0098945
0.0098945
0.019789
0.019789
0.0187291
0.0112054
0.0112054
0.0187291
0.0195332
0.0197217
0.019789
0.019789
0.019789
0.019789
0.0181597
0.0172839
0.0188704
0.0191923
0.019789
0.019789
0.0193052
0.0197097
0.0195552
0.0197279
0.0197277
0.00987658
0.00989385
0.00988674
0.00989438
0.019789
0.019789
0.0188994
0.0192891
0.0196289
0.0194752
0.0195777
0.019734
0.019789
0.019789
0.0195466
0.0197302
0.00903209
0.00902608
0.00104673
0.0193984
0.0194649
0.0188355
0.00958506
0.00958506
0.019598
0.019789
0.0197416
0.0098945
0.019761
0.019789
0.019789
0.0197831
0.0197156
0.019789
0.0197837
0.0194837
0.0194837
0.0188535
0.00958506
0.00958506
0.019789
0.019789
0.019789
0.019789
0.019789
0.019789
0.019789
0.019789
0.019789
0.019789
0.019789
0.019789
0.0194837
0.0194837
0.0188535
0.00958506
0.00958506
0.019789
0.019789
0.019789
0.019789
0.019789
0.019789
0.019789
0.019789
0.019789
0.019789
0.019789
0.019789
0.0194837
0.0194837
0.0188535
0.00958506
0.00958506
0.019789
0.019789
0.019789
0.019789
0.019789
0.019789
0.019789
0.019789
0.019789
0.019789
0.019789
0.019789
0.0194837
0.0194837
0.0188535
0.00958506
0.00958506
0.019789
0.019789
0.019789
0.019789
0.019789
0.019789
0.019789
0.019789
0.019789
0.019789
0.019789
0.019789
0.0194837
0.0194837
0.0188535
0.00958506
0.00958506
0.019789
0.019789
0.019789
0.019789
0.019789
0.019789
0.019789
0.019789
0.019789
0.019789
0.019789
0.019789
0.0194837
0.0194837
0.0097929
0.0188535
0.00958506
0.019789
0.019789
0.019789
0.019789
0.019789
0.019789
0.019789
0.019789
0.019789
0.019789
0.019789
0.019789
0.0171812
0.0171812
0.0197053
0.0197053
0.0144797
0.0144797
0.0171812
0.0171812
0.0144797
0.0144797
0.019789
0.019789
0.019789
0.019789
0.019789
0.019789
0.019789
0.019789
0.019789
0.019789
0.0112054
0.0187291
0.0187291
0.0112054
0.0197885
0.0197886
0.0197889
0.0197861
0.0197794
0.0197874
0.0197729
0.0197855
0.0197862
0.0112054
0.0147373
0.0172051
0.018729
0.0112054
0.0147376
0.0172045
0.0187288
0.019789
0.019789
0.0197888
0.0197847
0.0197883
0.0197874
0.0098945
0.00989449
0.00989143
0.00989147
0.00989127
0.00989373
0.00487214
0.00689831
0.0022745
0.00639217
0.00204018
0.00500353
0.00497792
0.00181346
0.0034302
0.00164255
0.00578314
0.00312558
0.00232373
0.00643935
0.00214771
0.0053764
0.00492892
0.00693725
0.0197885
0.0197885
0.0197691
0.0197691
0.019789
0.019789
0.019789
0.0197885
0.0197885
0.0197691
0.0197691
0.019789
0.019789
0.019789
0.0197053
0.0197053
0.0144797
0.0144797
0.0171812
0.0171812
0.0171812
0.0171812
0.0144797
0.0144797
0.0197691
0.0197691
0.019789
0.019789
0.019789
0.0197885
0.0197885
0.0197885
0.0197885
0.0197691
0.0197691
0.019789
0.019789
0.019789
0.019789
0.0197854
0.019789
0.019789
0.019789
0.019789
0.019789
0.019789
0.019789
0.019789
0.019789
0.019789
0.019789
0.019789
0.0197854
0.0197854
0.019789
0.0112054
0.0112054
0.0170091
0.0171342
0.0189124
0.0189161
0.0194896
0.0197048
0.0194894
0.0189168
0.0189167
0.0194805
0.0197024
0.0194881
0.0144797
0.0111797
0.0144797
0.0111798
0.017181
0.0171812
0.0111276
0.0144122
0.0144628
0.0111792
0.0196044
0.0195759
0.019736
0.0197442
0.0197744
0.0197864
0.0197843
0.019789
0.0197888
0.0197889
0.0197873
0.0197874
0.0197844
0.019789
0.019789
0.019789
0.019789
0.019789
0.019789
0.0187211
0.0188603
0.0195041
0.019743
0.0197148
0.019607
0.019504
0.019789
0.0197886
0.019789
0.019789
0.019789
0.019789
0.0197883
0.0188317
0.0191635
0.0197702
0.0197795
0.0196005
0.0197653
0.01961
0.019587
0.0197375
0.0197452
0.0197758
0.0197759
0.0197866
0.0098945
0.0098945
0.0098945
0.00989438
0.0169269
0.0185489
0.0145906
0.0111958
0.0112033
0.0147359
0.0186807
0.0172013
0.0098945
0.0098945
0.0098945
0.00989448
0.0197132
0.0197719
0.019787
0.0197858
0.0197686
0.0197884
0.0197835
0.0197657
0.019789
0.019789
0.019789
0.0197888
0.0197889
0.0197887
0.0193836
0.0196668
0.0197467
0.019767
0.0197798
0.0196975
0.0197885
0.0197884
0.0188702
0.0187097
0.0191777
0.0196045
0.0195045
0.0195648
0.0197222
0.0197777
0.0197872
0.0197745
0.019787
0.0194477
0.019164
0.0196008
0.01969
0.019789
0.0197886
0.0197849
0.0197874
0.0197889
0.0197887
0.0197883
0.0195089
0.0197763
0.0197865
0.019786
0.00901964
0.00897183
0.00958274
0.00987766
0.00987776
0.00981859
0.00987696
0.00987673
0.00779314
0.0107063
0.0098945
0.0098945
0.0150199
0.019789
0.019789
0.0112054
0.0187291
0.0112054
0.0187291
0.019789
0.019789
0.0112054
0.0187291
0.0112054
0.0187291
0.019789
0.019789
0.0112054
0.0187291
0.0112054
0.0187291
0.019789
0.019789
0.0112054
0.0187291
0.0112054
0.0187291
0.019789
0.019789
0.0112054
0.0187291
0.0112054
0.0187291
0.019789
0.019789
0.0112054
0.0187291
0.0112054
0.0187291
0.019789
0.019789
0.019789
0.019789
0.019789
0.019789
0.019789
0.019789
0.019789
0.019789
0.019789
0.019789
0.019789
0.019789
0.019789
0.019789
0.0098945
0.0098945
0.0098945
0.0098945
0.0098945
0.00201905
0.0145917
0.0148584
0.0194837
0.0197859
0.0197859
0.00876513
0.00894663
0.0188535
0.0112894
0.0112894
0.00894663
0.00894663
0.0098945
0.0098945
0.019789
0.019789
0.0112054
0.0112054
0.0197859
0.0194837
0.0197859
0.0194837
0.0197859
0.0197859
0.00894663
0.00894663
0.0188535
0.0112894
0.0112894
0.00894663
0.00894663
0.019789
0.019789
0.0112054
0.0112054
0.0187291
0.0197859
0.0194837
0.0197859
0.0194837
0.0197859
0.0197859
0.00894663
0.00894663
0.0188535
0.0112894
0.0112894
0.00894663
0.00894663
0.019789
0.019789
0.0112054
0.0187291
0.0112054
0.0197859
0.0194837
0.0197859
0.0194837
0.0197859
0.0197859
0.00894663
0.00894663
0.0188535
0.0112894
0.0112894
0.00894663
0.00894663
0.019789
0.019789
0.0112054
0.0187291
0.0112054
0.0187291
0.0197859
0.0194837
0.0197859
0.0194837
0.0197859
0.0197859
0.00894663
0.00894663
0.0188535
0.0112894
0.0112894
0.00894663
0.00894663
0.019789
0.019789
0.0112054
0.0112054
0.0187291
0.0197859
0.0194837
0.0197859
0.0194837
0.0197859
0.0197859
0.00894663
0.00894663
0.0188535
0.0112894
0.0112894
0.00894663
0.00894663
0.019789
0.019789
0.0112054
0.0112054
0.0197859
0.0194837
0.0197859
0.0197859
0.0194837
0.0197859
0.00894663
0.00894663
0.0112894
0.0188535
0.0112894
0.00952466
0.00894663
0.019789
0.019789
0.0187291
0.0112054
0.0112054
0.019789
0.019789
0.019789
0.019789
0.019789
0.019789
0.019789
0.019789
0.019789
0.019789
0.019789
0.019789
0.019789
0.019789
0.019789
0.019789
0.00983651
0.0098365
0.0098362
0.0098362
0.019789
0.019789
0.019789
0.019789
0.019789
0.019789
0.019789
0.019789
0.019789
0.019789
0.019789
0.019789
0.019789
0.019789
0.019789
0.019789
0.019789
0.019789
0.019789
0.019789
0.019789
0.019789
0.019789
0.019789
0.019789
0.019789
0.019789
0.019789
0.019789
0.019789
0.019789
0.019789
0.019789
0.019789
0.019789
0.019789
0.019789
0.019789
0.019789
0.019789
0.00986254
0.00983802
0.0098362
0.0098362
0.0098945
0.0098945
0.0098945
0.0098945
0.0098945
0.0157496
0.0171368
0.0159707
0.0127573
0.0136781
0.0144553
0.0140515
0.0098945
0.017076
0.012421
0.00784445
0.0195021
0.0137766
0.0186026
0.0195971
0.015775
0.0138167
0.0109884
0.0186768
0.0170367
0.0111995
0.0171812
0.0171812
0.0197053
0.0197053
0.0144797
0.0144797
0.0171812
0.0171812
0.0144797
0.0144797
0.019789
0.019789
0.019789
0.019789
0.019789
0.019789
0.019789
0.019789
0.019789
0.019789
0.0112054
0.0187291
0.0187291
0.0112054
0.0171812
0.0171812
0.0197053
0.0197053
0.0144797
0.0144797
0.0171812
0.0171812
0.0144797
0.0144797
0.019789
0.019789
0.019789
0.019789
0.019789
0.019789
0.019789
0.019789
0.019789
0.019789
0.0112054
0.0187291
0.0187291
0.0112054
0.0171812
0.0171812
0.0197053
0.0197053
0.0144797
0.0144797
0.0171812
0.0171812
0.0144797
0.0144797
0.019789
0.019789
0.019789
0.019789
0.019789
0.019789
0.019789
0.019789
0.019789
0.019789
0.0112054
0.0187291
0.0187291
0.0112054
0.0171812
0.0171812
0.0197053
0.0197053
0.0144797
0.0144797
0.0171812
0.0171812
0.0144797
0.0144797
0.019789
0.019789
0.019789
0.019789
0.019789
0.019789
0.019789
0.019789
0.019789
0.019789
0.0112054
0.0187291
0.0187291
0.0112054
0.0171812
0.0171812
0.0197053
0.0197053
0.0144797
0.0144797
0.0171812
0.0171812
0.0144797
0.0144797
0.019789
0.019789
0.019789
0.019789
0.019789
0.019789
0.019789
0.019789
0.019789
0.019789
0.0112054
0.0187291
0.0187291
0.0112054
0.0171812
0.0171812
0.0197053
0.0197053
0.0144797
0.0144797
0.0171812
0.0171812
0.0144797
0.0144797
0.019789
0.019789
0.019789
0.019789
0.019789
0.019789
0.019789
0.019789
0.019789
0.019789
0.0112054
0.0187291
0.0187291
0.0112054
0.019789
0.019789
0.019789
0.019789
0.019789
0.019789
0.019789
0.019789
0.0112054
0.0147376
0.0172051
0.0187291
0.0112054
0.0147376
0.0172051
0.0187291
0.019789
0.019789
0.019789
0.019789
0.019789
0.019789
0.019789
0.019789
0.019789
0.019789
0.019789
0.019789
0.019789
0.019789
0.019789
0.019789
0.019789
0.019789
0.019789
0.019789
0.019789
0.019789
0.019789
0.0172051
0.0187291
0.0147376
0.0112054
0.0112054
0.0147376
0.0187291
0.0172051
0.0098945
0.0098945
0.0098945
0.0098945
0.0098945
0.0098945
0.0098945
0.0098945
0.0098945
0.0098945
0.0098945
0.00989448
0.00989374
0.0098945
0.015021
0.0170737
0.0197089
0.0174205
0.0197176
0.0175528
0.0194836
0.0197694
0.0197858
0.0197885
0.0197885
0.0197734
0.0197885
0.0188535
0.0112865
0.0112893
0.0098945
0.00958506
0.0098945
0.0098945
0.00958506
0.0098945
0.0197301
0.0178947
0.0156557
0.0124356
0.00989449
0.0163597
0.019712
0.0197406
0.0157958
0.0181908
0.0098945
0.0156842
0.0171812
0.0171716
0.0197053
0.0197053
0.0144797
0.0144797
0.0144797
0.0144746
0.0171812
0.0171812
0.019776
0.0197884
0.0197691
0.0197691
0.019789
0.019789
0.019789
0.019757
0.0197691
0.019779
0.0197888
0.0197889
0.0197885
0.0197885
0.0098945
0.0170922
0.0186226
0.0197154
0.0197886
0.019789
0.019789
0.019789
0.019789
0.0197414
0.019789
0.0197888
0.0197886
0.019789
0.0197854
0.019789
0.0112054
0.0187178
0.0112042
0.018729
0.0197885
0.0197885
0.0194837
0.0197859
0.0197859
0.0197885
0.0197885
0.0194837
0.0197859
0.0197859
0.0197885
0.0197885
0.0197885
0.0197885
0.0188535
0.0112894
0.0112894
0.0098945
0.00958506
0.0098945
0.0098945
0.00958506
0.0098945
0.0197885
0.0197885
0.0197691
0.0197691
0.019789
0.019789
0.019789
0.0197885
0.0197885
0.019789
0.019789
0.019789
0.0171812
0.0171812
0.0197053
0.0197053
0.0144797
0.0144797
0.0144797
0.0144797
0.0171812
0.0171812
0.0197885
0.0197885
0.0197691
0.0197691
0.019789
0.019789
0.019789
0.019789
0.019789
0.019789
0.0197885
0.0197885
0.019789
0.0197854
0.0197854
0.019789
0.019789
0.019789
0.019789
0.019789
0.019789
0.019789
0.019789
0.019789
0.019789
0.019789
0.019789
0.0197854
0.019789
0.0112054
0.0187291
0.0112054
0.0197885
0.0197885
0.0194837
0.0197859
0.0197859
0.0197885
0.0197885
0.0194837
0.0197859
0.0197859
0.0197885
0.0197885
0.0197885
0.0197885
0.0188535
0.0112894
0.0112894
0.0098945
0.00958506
0.0098945
0.0098945
0.00958506
0.0098945
0.0197885
0.0197885
0.0197691
0.0197691
0.019789
0.019789
0.019789
0.0197885
0.0197885
0.019789
0.019789
0.019789
0.0171812
0.0171812
0.0197053
0.0197053
0.0144797
0.0144797
0.0144797
0.0144797
0.0171812
0.0171812
0.0197885
0.0197885
0.0197691
0.0197691
0.019789
0.019789
0.019789
0.019789
0.019789
0.019789
0.0197885
0.0197885
0.019789
0.019789
0.019789
0.019789
0.019789
0.019789
0.019789
0.019789
0.019789
0.019789
0.019789
0.019789
0.019789
0.0197854
0.019789
0.0112054
0.0112054
0.0187291
0.0197885
0.0197885
0.0194837
0.0197859
0.0197859
0.0197885
0.0197885
0.0194837
0.0197859
0.0197859
0.0197885
0.0197885
0.0197885
0.0197885
0.0188535
0.0112894
0.0112894
0.0098945
0.00958506
0.0098945
0.0098945
0.00958506
0.0098945
0.0197885
0.0197885
0.0197691
0.0197691
0.019789
0.019789
0.019789
0.0197885
0.0197885
0.0197691
0.019789
0.019789
0.019789
0.0171812
0.0171812
0.0197053
0.0197053
0.0144797
0.0144797
0.0144797
0.0144797
0.0171812
0.0171812
0.0197885
0.0197885
0.0197691
0.0197691
0.019789
0.019789
0.019789
0.019789
0.019789
0.019789
0.0197885
0.0197885
0.019789
0.0197854
0.019789
0.019789
0.019789
0.019789
0.019789
0.019789
0.019789
0.019789
0.019789
0.019789
0.019789
0.019789
0.019789
0.0112054
0.0187291
0.0112054
0.0187291
0.0197885
0.0197885
0.0194837
0.0197859
0.0197859
0.0197885
0.0197885
0.0194837
0.0197859
0.0197859
0.0197885
0.0197885
0.0197885
0.0197885
0.0188535
0.0112894
0.0112894
0.0098945
0.00958506
0.0098945
0.0098945
0.00958506
0.0098945
0.0197885
0.0197885
0.0197691
0.0197691
0.019789
0.019789
0.019789
0.0197885
0.0197885
0.0197691
0.019789
0.019789
0.019789
0.0171812
0.0171812
0.0197053
0.0197053
0.0144797
0.0144797
0.0144797
0.0144797
0.0171812
0.0171812
0.0197885
0.0197885
0.0197691
0.0197691
0.019789
0.019789
0.019789
0.0197691
0.0197691
0.019789
0.019789
0.019789
0.0197885
0.0197885
0.019789
0.0197854
0.019789
0.019789
0.019789
0.019789
0.019789
0.019789
0.019789
0.019789
0.019789
0.019789
0.019789
0.019789
0.0197854
0.0197854
0.019789
0.0112054
0.0112054
0.0187291
0.0197885
0.0197885
0.0194837
0.0197859
0.0197859
0.0197885
0.0197885
0.0194837
0.0197859
0.0197859
0.0197885
0.0197885
0.0197885
0.0197885
0.0188535
0.0112894
0.0112894
0.0098945
0.00958506
0.0098945
0.0098945
0.00958506
0.0098945
0.0197885
0.0197885
0.0197691
0.0197691
0.019789
0.019789
0.019789
0.0197885
0.0197885
0.019789
0.019789
0.019789
0.0171812
0.0171812
0.0197053
0.0197053
0.0144797
0.0144797
0.0144797
0.0144797
0.0171812
0.0171812
0.0197885
0.0197885
0.0197691
0.0197691
0.019789
0.019789
0.019789
0.0197691
0.019789
0.019789
0.019789
0.0197885
0.0197885
0.019789
0.0197854
0.019789
0.019789
0.019789
0.019789
0.019789
0.019789
0.019789
0.019789
0.019789
0.019789
0.019789
0.019789
0.0197854
0.019789
0.0112054
0.0112054
0.0197885
0.0197885
0.0194837
0.0197859
0.0197859
0.0197885
0.0197885
0.0197885
0.0197885
0.0194837
0.0197859
0.0197859
0.0197885
0.0197885
0.0098945
0.00958694
0.0098945
0.0188535
0.0112894
0.0112894
0.00958547
0.0098945
0.0098945
0.0197885
0.0197885
0.0197691
0.0197691
0.019789
0.019789
0.019789
0.0197885
0.0197885
0.0197691
0.0197691
0.019789
0.019789
0.019789
0.0197053
0.0197053
0.0144797
0.0144797
0.0171812
0.0171812
0.0171812
0.0171812
0.0144797
0.0144797
0.0197691
0.0197691
0.019789
0.019789
0.019789
0.0197885
0.0197885
0.0197885
0.0197885
0.0197691
0.0197691
0.019789
0.019789
0.019789
0.019789
0.0197854
0.0197854
0.019789
0.019789
0.019789
0.019789
0.019789
0.019789
0.019789
0.019789
0.019789
0.019789
0.019789
0.019789
0.019789
0.0112054
0.0187291
0.0112054
0.0171812
0.0171812
0.0189168
0.0189168
0.0194896
0.0197053
0.0194896
0.0189168
0.0189168
0.0194896
0.0197053
0.0194896
0.0144797
0.0111798
0.0144797
0.0111798
0.0171812
0.0171812
0.0111798
0.0144797
0.0144797
0.0111798
0.019789
0.019789
0.019789
0.019789
0.019789
0.019789
0.019789
0.019789
0.019789
0.019789
0.019789
0.019789
0.019789
0.019789
0.019789
0.019789
0.019789
0.019789
0.019789
0.019789
0.019789
0.019789
0.019789
0.019789
0.019789
0.019789
0.019789
0.019789
0.019789
0.019789
0.019789
0.019789
0.019789
0.019789
0.019789
0.019789
0.019789
0.019789
0.019789
0.019789
0.019789
0.019789
0.019789
0.019789
0.019789
0.019789
0.00989447
0.00989446
0.00983625
0.00983647
0.0147376
0.0112054
0.0187291
0.0172051
0.0172051
0.0187291
0.0112054
0.0147376
0.00989446
0.00989446
0.00983621
0.0098362
0.0197885
0.0197885
0.0197886
0.0197862
0.0197691
0.0197886
0.0197862
0.0197691
0.019789
0.019789
0.019789
0.019789
0.019789
0.019789
0.019789
0.019789
0.019789
0.019789
0.019789
0.019789
0.019789
0.0197885
0.0197885
0.0197886
0.0197862
0.0197862
0.0197886
0.019789
0.019789
0.019789
0.019789
0.019789
0.019789
0.0194896
0.0197053
0.0194896
0.0189168
0.0189168
0.0189168
0.0189168
0.0197053
0.0194896
0.0194896
0.0111798
0.0144797
0.0144797
0.0111798
0.0171812
0.0171812
0.0171812
0.0171812
0.0111798
0.0144797
0.0144797
0.0111798
0.0197862
0.0197691
0.0197886
0.0197886
0.0197862
0.0197691
0.019789
0.019789
0.019789
0.019789
0.019789
0.019789
0.0197885
0.0197885
0.0197885
0.0197885
0.019789
0.019789
0.019789
0.019789
0.019789
0.019789
0.019789
0.0197886
0.0197862
0.0197691
0.0197886
0.0197862
0.019789
0.019789
0.019789
0.019789
0.019789
0.019789
0.019789
0.019789
0.019789
0.019789
0.0197889
0.019789
0.019789
0.019789
0.019789
0.019789
0.019789
0.019789
0.019789
0.019789
0.019789
0.019789
0.019789
0.019789
0.019789
0.019789
0.019789
0.019789
0.019789
0.019789
0.019789
0.019789
0.019789
0.019789
0.019789
0.019789
0.019789
0.019789
0.019789
0.019789
0.019789
0.019789
0.019789
0.019789
0.019789
0.019789
0.019789
0.019789
0.019789
0.019789
0.019789
0.019789
0.019789
0.019789
0.019789
0.019789
0.019789
0.019789
0.019789
0.019789
0.019789
0.019789
0.019789
0.019789
0.019789
0.019789
0.019789
0.019789
0.0197889
0.0197854
0.0197854
0.019789
0.019789
0.019789
0.019789
0.019789
0.019789
0.019789
0.019789
0.019789
0.019789
0.00989447
0.00989446
0.00983625
0.00983682
0.0112054
0.0147376
0.0172051
0.0112054
0.0147376
0.0172051
0.00989446
0.00989446
0.00983621
0.0098362
0.0098945
0.0098945
0.0098945
0.0098945
0.0098945
0.0098945
0.0098945
0.0098945
0.0098945
0.0098945
0.0098945
0.0098945
0.0098945
0.0098945
0.0098945
0.00309724
0.00950802
0.00871782
0.0098945
0.0098945
0.0098945
0.019789
0.019789
0.019789
0.019789
0.019789
0.019789
0.019789
0.019789
0.019789
0.019789
0.019789
0.019789
0.019789
0.019789
0.019789
0.019789
0.019789
0.019789
0.019789
0.019789
0.019789
0.019789
0.019789
0.019789
0.0194837
0.0197074
0.0197074
0.0188535
0.0174361
0.0174361
0.010116
0.0097861
0.0101778
0.019789
0.019789
0.019789
0.019789
0.0098945
0.0098945
0.0098945
0.019789
0.019789
0.019789
0.019789
0.0197074
0.0194837
0.0197074
0.0194837
0.0197074
0.0197074
0.0188535
0.0174361
0.0174361
0.019789
0.019789
0.019789
0.019789
0.019789
0.019789
0.019789
0.019789
0.019789
0.019789
0.019789
0.019789
0.0197074
0.0194837
0.0197074
0.0194837
0.0197074
0.0197074
0.0188535
0.0174361
0.0174361
0.019789
0.019789
0.019789
0.019789
0.019789
0.019789
0.019789
0.019789
0.019789
0.019789
0.019789
0.019789
0.0197074
0.0194837
0.0197074
0.0194837
0.0197074
0.0197074
0.0188535
0.0174361
0.0174361
0.019789
0.019789
0.019789
0.019789
0.019789
0.019789
0.019789
0.019789
0.019789
0.019789
0.019789
0.019789
0.0197074
0.0194837
0.0197074
0.0194837
0.0197074
0.0197074
0.0188535
0.0174361
0.0174361
0.019789
0.019789
0.019789
0.019789
0.019789
0.019789
0.019789
0.019789
0.019789
0.019789
0.019789
0.019789
0.0197074
0.0194837
0.0197074
0.0194837
0.0197074
0.0197074
0.0188535
0.0174361
0.0174361
0.019789
0.019789
0.019789
0.019789
0.019789
0.019789
0.019789
0.019789
0.019789
0.019789
0.019789
0.019789
0.0197074
0.0194837
0.0197074
0.0197074
0.0194837
0.0197074
0.0174361
0.0188535
0.0174361
0.019789
0.019789
0.019789
0.019789
0.019789
0.019789
0.019789
0.019789
0.019789
0.019789
0.019789
0.019789
0.0098945
0.0098945
0.0098945
0.0098945
0.0098945
0.0098945
0.0098945
0.0098945
0.0098945
0.0195374
0.0197239
0.0112076
0.0188463
0.0195937
0.0191408
0.0194979
0.0196627
0.0197368
0.0187135
0.0188577
0.00980619
0.00983508
0.0098362
0.0098362
0.019789
0.019789
0.019789
0.019789
0.019789
0.019789
0.019789
0.019789
0.019789
0.019789
0.019789
0.019789
0.019789
0.019789
0.019789
0.019789
0.0098362
0.0098362
0.0098362
0.0098362
0.019789
0.019789
0.019789
0.019789
0.019789
0.019789
0.019789
0.019789
0.019789
0.019789
0.019789
0.019789
0.019789
0.019789
0.019789
0.019789
0.0098362
0.0098362
0.0098362
0.0098362
0.019789
0.019789
0.019789
0.019789
0.019789
0.019789
0.019789
0.019789
0.019789
0.019789
0.019789
0.019789
0.019789
0.019789
0.019789
0.019789
0.0098362
0.0098362
0.0098362
0.0098362
0.019789
0.019789
0.019789
0.019789
0.019789
0.019789
0.019789
0.019789
0.019789
0.019789
0.019789
0.019789
0.019789
0.019789
0.019789
0.019789
0.019789
0.0098362
0.0098362
0.0098362
0.0098362
0.019789
0.019789
0.019789
0.019789
0.019789
0.019789
0.019789
0.019789
0.019789
0.019789
0.019789
0.019789
0.019789
0.019789
0.019789
0.019789
0.019789
0.0098362
0.0098362
0.0098362
0.0098362
0.019789
0.019789
0.019789
0.019789
0.019789
0.019789
0.019789
0.019789
0.019789
0.019789
0.019789
0.019789
0.019789
0.019789
0.019789
0.019789
0.019789
0.0098362
0.0098362
0.0098362
0.0098362
0.0191667
0.019622
0.019388
0.0194803
0.0196887
0.0197041
0.0188502
0.0174207
0.0174332
0.00989129
0.00958506
0.00989129
0.00989129
0.00958506
0.00989129
0.0083738
0.0195004
0.0196731
0.0193833
0.0197121
0.0196821
0.0191528
0.0098945
0.0098945
0.0197861
0.0197618
0.0197723
0.0197838
0.019789
0.019789
0.0197639
0.0197793
0.0098945
0.0110276
0.0107163
0.0196697
0.0197509
0.0197866
0.0197752
0.0197727
0.0197402
0.0197136
0.0197789
0.019789
0.019789
0.019789
0.019789
0.0197778
0.0197881
0.0197699
0.0197733
0.0197019
0.019789
0.019789
0.019789
0.019789
0.0197813
0.0197882
0.0098362
0.0098362
0.0098362
0.0098362
0.0194837
0.0197074
0.0197074
0.0194837
0.0197074
0.0197074
0.0188535
0.0174361
0.0174361
0.00989129
0.00958506
0.00989129
0.00989129
0.00958506
0.00989129
0.019789
0.019789
0.019789
0.019789
0.019789
0.019789
0.019789
0.019789
0.019789
0.019789
0.019789
0.019789
0.019789
0.019789
0.019789
0.019789
0.019789
0.019789
0.019789
0.019789
0.019789
0.019789
0.019789
0.019789
0.019789
0.019789
0.019789
0.019789
0.019789
0.019789
0.019789
0.019789
0.019789
0.019789
0.019789
0.019789
0.019789
0.019789
0.019789
0.019789
0.019789
0.019789
0.0098362
0.0098362
0.0098362
0.0098362
0.0194837
0.0197074
0.0197074
0.0194837
0.0197074
0.0197074
0.0188535
0.0174361
0.0174361
0.00989129
0.00958506
0.00989129
0.00989129
0.00958506
0.00989129
0.019789
0.019789
0.019789
0.019789
0.019789
0.019789
0.019789
0.019789
0.019789
0.019789
0.019789
0.019789
0.019789
0.019789
0.019789
0.019789
0.019789
0.019789
0.019789