/*--------------------------------*- C++ -*----------------------------------*\
| =========                 |                                                 |
| \\      /  F ield         | OpenFOAM: The Open Source CFD Toolbox           |
|  \\    /   O peration     | Version:  2306                                  |
|   \\  /    A nd           | Website:  www.openfoam.com                      |
|    \\/     M anipulation  |                                                 |
\*---------------------------------------------------------------------------*/
FoamFile
{
    version     2.0;
    format      ascii;
    arch        "LSB;label=32;scalar=64";
    class       volVectorField;
    location    "0.1";
    object      Force;
}
// * * * * * * * * * * * * * * * * * * * * * * * * * * * * * * * * * * * * * //

dimensions      [1 1 -2 0 0 0 0];

internalField   uniform (0 0 0);

boundaryField
{
    walls
    {
        type            calculated;
        value           uniform (0 0 0);
    }
    inlet
    {
        type            calculated;
        value           uniform (0 0 0);
    }
    outlet
    {
        type            calculated;
        value           uniform (0 0 0);
    }
    NASA
    {
        type            calculated;
        value           nonuniform List<vector> 
14179
(
(-0.0141081 -0.129811 2.40234e-06)
(-0.0125364 -0.103704 1.40753e-06)
(-0.0656254 -0.531082 0.000229555)
(-0.098068 -0.789558 0.000860704)
(-0.0637092 -0.516035 0.000116888)
(-0.107617 -0.86629 0.000997344)
(0.216318 0.93948 -0.00010782)
(0.0935055 0.469286 -3.28065e-05)
(0.663746 3.25513 0.0045698)
(0.0979114 0.491432 -3.45891e-05)
(0.00160167 0.00543609 -1.62944e-06)
(-0.0176121 -0.14418 0.000192678)
(0.13261 0.662668 -0.000660593)
(-0.035129 -0.319896 0.000547322)
(0.0629084 0.314162 -0.00029633)
(1.37863 0.929952 0.00281405)
(1.39399 0.923707 -0.000173215)
(0.0244928 0.137784 -1.93174e-05)
(0.156707 0.92979 -7.51759e-05)
(1.29169 0.856361 -0.000422051)
(-0.0166722 -0.23339 -1.48315e-05)
(-0.0206708 -0.192309 -0.000137853)
(-0.0190752 -0.264974 -0.000252281)
(-0.00820642 -0.0598605 8.28034e-07)
(-0.0127027 -0.105142 8.41836e-06)
(-0.00887129 -0.0647084 8.95189e-06)
(-0.0129611 -0.106864 0.000203719)
(-0.0151535 -0.1087 0.000213943)
(-0.0133519 -0.122084 0.000234335)
(-0.0157477 -0.21645 0.00346821)
(0.0475089 0.207481 3.66048e-05)
(0.0536897 0.253174 9.70262e-06)
(0.0577191 0.272181 -5.62732e-05)
(0.0468685 0.204177 -1.57366e-05)
(0.069249 0.253941 2.24603e-06)
(0.070356 0.257957 1.91012e-05)
(0.0349353 0.126707 1.12916e-06)
(0.0361778 0.131197 8.67386e-06)
(-0.00172674 -0.00839951 0.000132542)
(-0.0131249 -0.0638985 0.000586107)
(0.171635 0.627084 -0.000332951)
(0.10035 0.361948 0.000160923)
(0.0995606 0.49981 -1.88346e-05)
(-0.00555423 -0.0391512 2.00735e-06)
(-0.00507736 -0.0357816 -5.74318e-06)
(0.159123 0.799369 -2.99913e-05)
(-0.00977617 -0.0676991 0.000168709)
(0.0984798 0.491899 -4.33973e-05)
(0.0915453 0.45767 -0.000155203)
(0.10893 0.445062 -0.000313821)
(0.0852193 0.316795 -1.40142e-05)
(0.0848602 0.315444 -2.0221e-05)
(-0.0573381 1.40058 -7.73851e-05)
(1.38906 0.923457 -0.000701113)
(-0.0500046 1.22666 7.79976e-05)
(-0.00229761 1.13982 -5.89329e-05)
(0.0851932 1.2886 6.82832e-05)
(0.0774379 1.17022 -8.01575e-05)
(-0.0026894 1.22038 -1.85607e-05)
(0.096674 0.379866 -2.08266e-05)
(0.159481 0.94596 -3.71684e-05)
(0.00822995 0.0299931 6.81429e-05)
(-0.0231451 0.573056 -0.000126708)
(0.934532 0.637778 0.0787785)
(-0.000807091 0.539168 -0.000417099)
(0.0273723 0.416662 -0.000192579)
(0.129463 0.758229 0.00795428)
(-0.0142586 -0.142727 4.53618e-06)
(-0.014052 -0.129375 3.62016e-06)
(-0.0963483 -0.775832 0.000842422)
(-0.0109957 -0.0872789 1.81089e-06)
(-0.0125146 -0.103531 2.74364e-06)
(1.33612 0.884782 -0.00108841)
(1.28891 0.853793 -0.000835986)
(0.350472 2.0793 -0.00266852)
(0.264106 1.56138 -0.00167453)
(-0.109369 -0.881595 -0.000450627)
(-0.0541782 -0.337582 0.000421115)
(-0.0537755 -0.337221 0.000413361)
(-0.0399609 -0.234811 0.000317084)
(0.159182 0.68726 -0.000827506)
(0.177885 0.769537 -0.000899998)
(0.764579 1.31271 -5.38628e-05)
(0.765105 1.3116 -0.000327038)
(0.094295 0.473234 -1.77965e-05)
(0.0882455 0.423852 -1.91184e-05)
(0.000195098 -0.000276129 -1.14673e-06)
(0.00196234 0.010453 -3.73768e-08)
(0.0020019 0.0106812 -1.72084e-06)
(0.000203747 -0.00021662 7.70174e-08)
(0.0999882 0.501942 -1.44419e-06)
(0.0938289 0.483875 -2.20181e-05)
(-0.0200051 -0.16367 0.000219937)
(-0.0132734 -0.0951806 0.00014572)
(-0.0201852 -0.144279 0.000193146)
(-0.0121003 -0.0835061 0.000138019)
(-0.0179309 -0.123095 0.000122821)
(0.0869871 0.434292 -0.000543084)
(-0.0200227 -0.182362 0.000228276)
(-0.0245004 -0.337531 0.000712765)
(-0.0208757 -0.293724 -0.000217657)
(0.0815954 0.407748 -0.00048069)
(1.3759 0.92401 -0.00269869)
(0.0988973 0.583083 -2.74435e-05)
(0.1094 0.611763 -1.15409e-05)
(0.110419 0.617349 -2.73885e-05)
(0.193236 1.34533 -2.23385e-05)
(0.0999756 0.593036 -1.82112e-05)
(0.156359 0.927657 -3.05181e-05)
(0.0220192 0.0208013 1.63095e-05)
(0.32533 -0.11988 0.00326641)
(0.344409 -0.136538 0.00162565)
(0.0182669 0.017571 -4.85463e-05)
(-0.00593086 -0.0256159 0.000109323)
(0.0229974 0.0848541 -4.1717e-05)
(0.00336685 0.0118386 6.10869e-05)
(0.0235664 0.0949787 5.04477e-05)
(-0.00888526 -0.0397336 6.97236e-05)
(-0.000738272 -0.00517019 8.8247e-05)
(0.00520982 0.02192 2.33987e-05)
(-0.0176808 -0.0855975 0.000111056)
(-0.00115702 0.736087 -0.000712091)
(0.0409801 0.61323 -0.000647754)
(-0.00167608 0.985377 -0.0010002)
(0.032066 0.486441 -0.000839214)
(-0.0350458 0.873664 -0.00105558)
(1.11579 0.750738 -0.000711315)
(-0.0474784 1.17123 -0.00117022)
(0.111537 0.660461 -0.00173085)
(0.159051 0.623104 -0.000953736)
(0.119891 0.469077 -0.000463256)
(0.110636 0.403878 -0.000375169)
(0.155919 0.569877 -0.000552715)
(0.0643932 0.232455 -0.000213314)
(0.0876824 0.317052 -0.000375018)
(-0.0128749 -0.145118 -3.49764e-06)
(-0.0165584 -0.23149 3.40388e-06)
(-0.0100425 -0.0774417 1.74518e-06)
(-0.00806123 -0.0588053 7.78831e-07)
(0.000337034 0.000403125 0.546194)
(-0.0129781 -0.102219 0.000199371)
(0.000310331 0.000386852 0.519258)
(-0.0144407 -0.110135 0.000221842)
(0.00060476 0.000590265 0.591726)
(-0.0130886 -0.130823 0.000318699)
(0.000836774 0.00105295 0.593138)
(-0.0122119 -0.140802 0.00113559)
(0.0534745 0.252151 -1.47415e-05)
(0.0398021 0.181034 -3.76177e-06)
(0.0401203 0.182501 -1.04758e-05)
(0.047093 0.205112 -7.3628e-06)
(0.0463924 0.204367 -6.04421e-06)
(0.0466331 0.205434 -1.04158e-05)
(0.0689041 0.252604 5.73036e-06)
(0.0246239 0.1225 -7.62511e-06)
(0.022082 0.11207 -6.66656e-06)
(0.0352584 0.127848 5.8509e-06)
(0.0300739 0.105767 5.86783e-08)
(-0.00620375 -0.0284588 0.000205179)
(-0.00530107 -0.025306 0.000235035)
(0.000269266 0.000292483 0.330241)
(0.0002749 0.00026798 0.323904)
(0.000267597 0.000260404 0.319776)
(0.000285785 0.0002815 0.36763)
(0.0947063 0.322857 0.000389718)
(0.161713 0.565695 0.00404272)
(-4.64064e-05 0.000360665 0.347154)
(0.000200587 -5.66788e-05 0.313901)
(0.000119994 0.000111346 0.111467)
(0.0827439 0.290604 0.000156951)
(0.286417 0.665358 3.29143e-06)
(0.16896 0.595661 6.75134e-05)
(0.167253 0.58968 -1.47564e-05)
(0.0785016 0.3665 -8.10134e-06)
(0.0777917 0.36333 -5.1663e-06)
(0.139321 0.665304 -2.43046e-05)
(0.0743027 0.33086 -2.48974e-06)
(0.0765339 0.347285 -1.76277e-06)
(0.0788627 0.357872 -1.91973e-06)
(0.0724369 0.322598 2.22299e-06)
(-0.00405586 -0.0288981 -6.71098e-07)
(-0.00548445 -0.0386635 -5.81671e-07)
(0.153898 0.815175 -1.49714e-05)
(0.2739 0.472492 0.0116332)
(0.000622699 0.00249483 0.881718)
(0.000350967 0.00110634 0.420776)
(0.0501584 0.145972 0.000148636)
(-0.0117735 -0.0735135 0.000231634)
(-0.0118553 -0.0748998 0.00037611)
(0.000685766 0.00110593 0.693339)
(0.000205893 -2.95545e-05 0.317364)
(0.0975841 0.501197 0.000950837)
(0.000352512 -0.000125886 0.382276)
(0.142027 0.746956 0.00542454)
(0.000403511 0.000427031 0.35442)
(0.000258197 0.0002755 0.337736)
(-0.00051054 -7.77634e-05 0.361087)
(6.76192e-05 0.000204215 0.114903)
(0.0816114 0.390142 -0.000156704)
(0.104536 0.485938 0.00085062)
(0.000363487 1.98684e-06 0.210625)
(9.33439e-05 0.00031124 0.11026)
(0.17172 0.722043 0.00189511)
(0.0852395 0.316859 -1.1399e-05)
(0.0812409 0.311002 -1.8545e-05)
(0.0970361 0.395588 -2.10481e-05)
(0.068063 0.27414 -5.37491e-06)
(-0.824824 2.63701 -0.0202455)
(-0.0526415 1.28975 -2.31519e-05)
(-0.163296 1.52648 0.000668505)
(0.0841274 1.27031 -5.48508e-05)
(0.0644543 1.37872 -4.4646e-05)
(-0.00255508 1.18152 -4.23866e-05)
(0.0357178 1.34921 -3.65925e-05)
(0.119624 1.31312 -1.24928e-05)
(0.162605 2.09944 -5.38361e-05)
(0.16304 2.10487 -2.01098e-05)
(0.116945 1.28404 -5.50841e-05)
(0.126461 1.29192 -3.89026e-05)
(0.125695 1.16961 1.19069e-05)
(0.127609 1.18785 -7.00745e-05)
(0.122779 1.25384 1.08725e-05)
(0.0682731 0.282884 -4.78761e-06)
(0.0612242 0.242918 -3.97235e-06)
(0.0963631 0.378578 -8.51429e-07)
(0.118363 0.801782 -3.5257e-05)
(0.108575 0.683879 -1.87642e-05)
(-0.000621645 -0.000430766 0.579339)
(0.000563506 0.00178895 0.913315)
(0.00170585 0.00592965 0.000130786)
(3.3838e-05 0.00230519 0.755457)
(0.00288693 0.0101661 0.000129802)
(0.000230636 0.00977964 0.276576)
(-0.0615469 0.590063 -0.000711655)
(0.00717308 -0.00409545 1.76079)
(0.000229719 0.000283875 0.307581)
(0.0142818 0.524217 -0.000461014)
(0.000628941 -0.0001149 0.248129)
(0.0235285 0.493576 -0.000296267)
(0.0623483 0.536959 -0.000456117)
(0.0620919 0.527096 -0.000418581)
(0.000271747 0.000239436 0.248372)
(0.000295619 0.000260665 0.273111)
(0.0584327 0.539682 -0.000356625)
(0.0530843 0.536154 -6.47929e-05)
(0.0479922 0.526056 0.00127479)
(1.6205e-05 -0.000884749 0.228102)
(-0.0193623 -0.106352 0.00110667)
(-6.15133e-05 0.000369687 0.513719)
(0.0929956 0.517469 -2.04519e-05)
(0.000264948 0.000262416 0.32922)
(0.000268329 0.000265089 0.330868)
(0.479584 -0.191017 -0.00394728)
(0.227257 0.214914 0.00240382)
(0.000170941 4.5503e-05 0.0826938)
(-0.0528203 -0.519953 0.000371419)
(-0.0695167 -0.561908 0.00040604)
(-0.0552396 -0.543287 0.000485862)
(-0.0698256 -0.564364 0.000415667)
(-0.0745586 -0.601997 0.000544248)
(-0.0569078 -0.559403 0.000561094)
(-0.0791871 -0.638863 0.000648384)
(0.180241 0.780587 -0.000925626)
(0.45509 2.22967 -0.00245332)
(0.183758 0.796262 -0.000939927)
(0.433688 2.12423 -0.00235169)
(-0.0638801 -0.517299 0.000132665)
(-0.0393611 -0.245889 0.000286882)
(-0.102506 -0.824979 0.000909975)
(-0.0452182 -0.281989 0.000331999)
(1.39237 0.922607 -0.000313379)
(1.39449 0.924022 -0.000159186)
(0.230591 1.00135 -0.000140105)
(0.590209 2.8958 -0.000611813)
(0.590681 2.89856 -0.000413393)
(0.215373 0.935045 -0.000223151)
(0.433412 2.57015 -0.000357453)
(0.495406 2.93648 -0.000655336)
(0.00101997 0.00297359 1.98397e-07)
(0.00158482 0.00584522 -6.83231e-07)
(0.0243197 0.137887 -3.30642e-05)
(0.0248603 0.140451 -2.28442e-05)
(0.053484 0.232486 -0.000133636)
(0.0399142 0.181674 -0.000104382)
(0.0637005 0.277626 -0.000197578)
(0.0315655 0.142789 -4.88351e-05)
(-0.106916 -0.861245 0.00100328)
(-0.0676766 -0.492344 0.000570522)
(0.0223452 0.106278 1.01174e-05)
(-0.00822098 -0.0463504 0.000115093)
(0.064471 0.235202 -0.000287799)
(0.072668 0.265075 -0.000300369)
(0.0350698 0.126485 -0.000156494)
(0.0406411 0.146573 -0.000166419)
(0.284327 1.28662 -0.000178378)
(0.176177 0.764495 1.21035e-05)
(0.314076 1.4853 -0.000250676)
(0.14441 0.724844 -4.54041e-05)
(-0.0181974 -0.153306 0.000156225)
(-0.0407961 -0.302877 0.000273067)
(-0.00664085 -0.0485935 -1.59346e-05)
(0.00236194 0.00942281 -4.52442e-06)
(-0.016565 -0.114057 1.52885e-05)
(-0.0219526 -0.154442 5.99726e-05)
(0.0978418 0.400071 0.000173164)
(0.0845468 0.314292 -4.35666e-05)
(0.0847226 0.314939 -2.82208e-05)
(0.109412 0.448877 -0.000646414)
(0.167379 0.735236 -0.000129908)
(0.143934 0.663345 3.78033e-05)
(0.174772 0.768262 -0.000101792)
(0.184373 0.859915 3.80941e-05)
(-0.00238469 1.15266 -2.78398e-05)
(0.0675351 1.0192 -0.000196869)
(-0.0028123 1.35777 -0.000159931)
(0.0745599 1.1267 -0.000105598)
(-0.0586462 1.43347 -5.06443e-05)
(1.39182 0.923589 -0.000351395)
(-0.0647452 1.58379 -0.000197011)
(0.480929 4.12479 -0.00134816)
(0.0932469 0.366434 -1.11432e-05)
(0.0809675 0.318226 -4.79943e-05)
(0.0759184 0.27846 -1.16535e-05)
(0.0737947 0.270573 2.07557e-05)
(0.0585965 0.307256 -7.56097e-05)
(0.1876 0.926153 -0.00101847)
(0.0236336 0.132086 -5.98509e-05)
(0.0492385 0.264369 -3.55033e-05)
(0.816075 5.10701 0.00316794)
(0.385602 2.57662 0.000803696)
(0.041205 0.149499 -3.85798e-06)
(0.0374656 0.135873 1.31417e-05)
(1.2734 0.846187 0.000636517)
(0.0913411 0.632906 -0.000726475)
(0.253997 0.238298 -0.000143249)
(0.503604 -0.208765 4.87967e-06)
(0.240836 0.226655 -0.000217278)
(0.522068 -0.21679 -0.000262999)
(0.0692632 0.253955 8.92017e-06)
(0.0311802 0.109639 7.78326e-06)
(0.0357484 0.129648 8.1001e-06)
(0.286424 0.665366 -9.85471e-06)
(0.276641 0.812038 -3.77323e-05)
(0.000509727 0.00132612 0.746887)
(0.000182085 0.000444716 0.370236)
(0.000348112 -0.00012613 0.391965)
(-0.185637 1.7212 -0.000120316)
(-0.0564378 1.38021 -1.66239e-05)
(1.38473 0.923959 -0.00141954)
(0.0220114 0.0207811 1.75093e-05)
(0.34539 -0.141944 0.000131693)
(0.346563 -0.140889 0.000559966)
(0.0222352 0.020962 1.28189e-05)
(0.000271364 0.000105301 0.557332)
(0.000224648 3.54983e-05 0.386963)
(0.000226749 0.000223253 0.347381)
(0.000413636 0.000435126 0.375331)
(-0.0869239 -0.700611 0.000740919)
(1.37404 0.909969 -0.00113062)
(1.36136 0.901546 -0.00111671)
(1.3349 0.883985 -0.00108829)
(1.36063 0.901058 -0.00111586)
(0.402384 1.96975 -0.00218805)
(0.177154 0.766576 -0.00090427)
(0.178899 0.77463 -0.000917945)
(0.425604 2.08443 -0.00231447)
(0.273957 1.61993 -0.00176803)
(0.293293 1.7346 -0.00185587)
(-0.021114 -0.1253 0.000162172)
(-0.0280179 -0.165269 0.000211352)
(-0.0529157 -0.329579 0.000400532)
(-0.0473094 -0.294879 0.000349853)
(-0.0379568 -0.222972 0.000291868)
(-0.0306194 -0.180331 0.000231382)
(0.25587 2.17916 -0.00228074)
(0.242874 2.06787 -0.00228379)
(0.0262721 0.0970422 -5.85666e-05)
(0.0250092 0.101129 -8.90752e-05)
(0.0369572 0.150371 0.000104592)
(0.0344196 0.127366 -0.000102446)
(0.00276462 0.0114634 6.06789e-05)
(0.0303024 0.130047 2.8685e-05)
(0.0394826 0.17083 -5.61401e-05)
(0.0248254 0.110992 3.02462e-05)
(0.0424814 0.157375 -0.000142657)
(0.0472416 0.192747 9.16246e-05)
(0.0367287 0.135962 -0.000114482)
(0.0428274 0.640591 -0.000663261)
(-0.00176522 1.02861 -0.00104348)
(-0.00196915 1.13361 -0.00114734)
(0.0471319 0.705226 -0.000734264)
(-0.0549336 1.35395 -0.00135926)
(1.3228 0.87594 -0.00106988)
(-0.0574492 1.4156 -0.00142336)
(-0.0493189 1.21634 -0.00121901)
(-0.0537225 1.32428 -0.00132902)
(1.32027 0.874255 -0.00106884)
(-0.00202656 1.16209 -0.00117613)
(0.0514689 0.771242 -0.000795336)
(-0.00214089 1.21914 -0.00123509)
(0.0484453 0.725372 -0.000726484)
(0.229507 1.35641 -0.00144255)
(0.416218 2.59322 -0.00484878)
(0.239985 1.59961 -0.00173678)
(0.250108 1.47816 -0.00165493)
(0.410682 2.56296 -0.00272939)
(0.382443 2.38571 -0.00260799)
(0.19755 1.31495 -0.00227769)
(-0.0796189 -0.585139 0.000300964)
(-0.100297 -0.808411 0.000925554)
(-0.0645118 -0.428746 0.000511583)
(-0.0545267 -0.340212 0.000446322)
(-0.0779912 -0.523815 0.000541598)
(-0.0510942 -0.319679 0.000437458)
(-0.0211834 -0.118368 0.000194571)
(-0.0419565 -0.246919 0.000360196)
(0.00871685 0.0367377 0.000234533)
(-0.0447162 -0.264447 0.000362171)
(0.234681 1.05521 -0.00126529)
(0.181934 0.786595 -0.000895155)
(0.240773 1.13529 -0.00128132)
(0.179566 0.77661 -0.000895296)
(0.227725 1.02726 -0.00117711)
(0.24519 1.15485 -0.00164424)
(0.372959 1.82375 -0.00214215)
(0.107489 0.420474 -0.000429022)
(0.0906598 0.354557 -0.000394384)
(0.0972155 0.354786 -0.000348003)
(0.076495 0.279042 -0.000305977)
(0.0879767 0.344094 -0.000396737)
(0.0817566 0.319829 -0.000385237)
(0.0564817 0.20383 -0.000196785)
(0.0432475 0.155978 -0.000170779)
(0.127766 0.296266 -0.000251202)
(0.108781 0.252133 -0.000178085)
(-0.0205898 -0.156205 0.000218396)
(-0.0179335 -0.128409 0.00018826)
(0.0825308 0.422147 -0.000771389)
(0.0872008 0.435556 -0.000468528)
(0.126128 0.666247 -0.00137578)
(-0.0192172 -0.190167 0.000171017)
(-0.0197503 -0.180292 0.000238307)
(-0.0171483 -0.188974 -7.40507e-05)
(-0.0211309 -0.293612 0.00030581)
(0.078355 0.375307 -0.000559695)
(0.0830437 0.41484 -0.000434497)
(-0.00355311 -0.015145 7.28782e-05)
(0.00691684 0.0268816 8.70598e-05)
(0.000111712 -0.000367311 7.27107e-05)
(0.0138133 0.0506761 2.0072e-05)
(0.0176999 0.652393 -0.000651172)
(-0.00138671 0.849947 -0.000882288)
(0.0270622 0.572186 -0.000644762)
(0.0363209 0.544707 -0.00065367)
(-0.106449 1.01123 -0.00247717)
(-0.0414148 1.02442 -0.0010938)
(1.23704 0.826318 0.00215538)
(-0.469168 1.52644 -0.00125148)
(-0.0453182 1.11887 -0.00113931)
(-0.142332 1.32341 -0.00128033)
(-0.0114311 -0.0598291 0.000129131)
(-0.00811231 -0.0418626 0.000102639)
(-0.00996821 -0.0511607 0.000119102)
(-0.00953345 -0.050119 0.00011352)
(-0.0246141 -0.135228 8.7121e-05)
(0.000664983 0.000685022 0.395937)
(0.0591394 0.398257 -0.000443756)
(0.0934815 0.647853 -0.00083971)
(0.0613297 0.412733 -0.000525658)
(0.129148 0.471611 -0.000421621)
(0.15654 0.571917 -0.000525598)
(0.0744806 0.26896 -0.000236173)
(0.0630473 0.220689 -0.000201223)
(0.0827341 0.290144 -0.000450323)
(0.090788 0.328048 -0.000311862)
(0.449417 -0.187763 -0.0027727)
(0.217504 0.199783 0.00074148)
(0.264696 0.246256 5.18007e-05)
(0.524477 -0.218756 -0.00109346)
(0.22502 0.976017 -0.00106266)
(0.623428 3.05686 -0.0031867)
(0.227279 0.985875 -0.00104729)
(0.603168 2.95745 -0.00316193)
(-0.0647781 -0.524369 0.000188494)
(-0.000453427 -0.00607674 5.03122e-06)
(0.000191089 -0.00209994 2.22971e-06)
(0.24681 1.07156 -0.00035531)
(0.634516 3.11323 -0.00138414)
(0.261271 1.13422 -0.000471964)
(-0.0592406 -0.431189 0.000474623)
(0.17991 0.79116 -0.00018145)
(0.146553 0.676443 -0.000173831)
(0.180111 0.79206 -0.000208549)
(0.146478 0.676048 -0.000155795)
(0.0649599 0.238062 -5.08252e-05)
(0.0686523 0.251561 -6.64334e-05)
(-0.0317732 -0.233346 5.45817e-05)
(0.166522 0.824363 -0.000208552)
(0.0659724 0.347066 -8.6386e-05)
(0.0331365 0.120109 -2.90147e-05)
(0.0397624 0.144122 -4.75546e-05)
(1.39376 0.923668 -0.000177306)
(0.0204488 0.0191945 5.43472e-06)
(0.328513 -0.136315 -1.53435e-06)
(0.0228929 0.0214976 1.10169e-06)
(0.329677 -0.136741 -3.6451e-06)
(-0.0179752 -0.114082 0.000127162)
(-0.0204041 -0.129054 0.000145537)
(-0.0372525 -0.232894 0.000271049)
(-0.0920773 -0.741743 0.000796441)
(-0.0321588 -0.201502 0.000232609)
(0.18574 0.805021 -0.000950052)
(0.196703 0.853218 -0.000984185)
(0.107026 0.468816 -0.000445105)
(0.0810383 0.372353 -0.000351435)
(0.110571 0.484455 -0.000463783)
(0.0776831 0.356807 -0.000332043)
(0.047082 0.215007 -0.000152906)
(0.0724388 0.316216 -0.000248735)
(0.0793966 0.346926 -0.000290307)
(0.0530332 0.242628 -0.000191343)
(0.0580242 0.212344 -0.000292938)
(0.0565561 0.206836 -0.000284516)
(0.062644 0.228562 -0.000285184)
(0.0586974 0.214257 -0.000279329)
(0.0172349 0.0887141 -6.33475e-05)
(0.074114 0.364168 -0.000327111)
(-0.0670763 -0.487842 0.000558424)
(0.030189 0.145557 -5.0704e-05)
(-0.00430188 -0.0254171 8.17498e-05)
(0.03746 0.18185 -0.000102182)
(0.0314423 0.113805 -0.000162674)
(0.0301696 0.109115 -0.000155711)
(0.0338184 0.121983 -0.000154479)
(0.0311659 0.112466 -0.000150319)
(1.33467 0.883818 -0.00108474)
(1.30306 0.862891 -0.000981195)
(0.131752 0.124137 -0.000154727)
(0.361281 -0.14997 0.000108551)
(0.372627 -0.154679 0.000113661)
(0.119514 0.112596 -0.000144193)
(0.482346 -0.199979 9.41246e-05)
(0.224457 0.211447 -0.000228703)
(0.210031 0.197924 -0.000221052)
(0.462169 -0.191722 0.000105485)
(8.05971e-05 -0.0130193 7.63834e-06)
(-9.22603e-05 -0.0257906 1.51667e-05)
(-0.0524314 -0.516289 0.000311339)
(-4.58267e-05 -0.0222994 1.68301e-05)
(-0.000202128 -0.0339585 2.02788e-05)
(-0.0683571 -0.552745 0.000337686)
(-0.054143 -0.5327 0.000440107)
(-0.000179043 -0.032073 3.11895e-05)
(-9.51326e-05 -0.0258938 2.4027e-05)
(-0.0718145 -0.580172 0.000478697)
(-0.0722641 -0.583749 0.000487695)
(0.000116849 -0.0101517 1.6423e-05)
(-0.0560483 -0.551079 0.000529505)
(-2.53437e-05 -0.0206772 2.33748e-05)
(-0.0767763 -0.619645 0.000601813)
(1.3908 0.921147 -0.00112259)
(1.38905 0.919975 -0.00112995)
(1.38641 0.918205 -0.00113578)
(1.3909 0.921193 -0.00113255)
(0.224762 0.974971 -0.0010686)
(0.544047 2.66761 -0.00287869)
(0.589165 2.88885 -0.00310021)
(0.185841 0.806406 -0.000909921)
(0.18106 0.784274 -0.000928179)
(0.238911 1.07872 -0.00123913)
(0.270693 1.27777 -0.0014284)
(0.448244 2.19594 -0.00242007)
(0.182486 0.790597 -0.000934012)
(0.246242 1.11225 -0.00127042)
(0.259816 1.22605 -0.00137896)
(0.44051 2.15784 -0.00239005)
(1.39328 0.923159 -0.000563666)
(1.39553 0.924679 -0.000464856)
(1.39251 0.922694 -0.000333779)
(1.39549 0.924656 -0.000448716)
(0.511121 3.02981 -0.000754832)
(0.475941 2.82171 -0.000985328)
(0.000880748 0.0021463 3.23013e-07)
(-0.0644973 -0.522146 0.000174058)
(0.00041215 -0.00073546 1.57519e-06)
(0.0228886 0.129603 -5.56701e-05)
(0.0235404 0.133392 -4.89249e-05)
(0.0241976 0.137207 -3.66473e-05)
(0.0237632 0.134687 -4.616e-05)
(0.205234 0.891049 -0.000209026)
(0.237363 1.03075 -0.000295262)
(0.668252 3.27949 -0.00102563)
(-0.0529641 -0.352351 0.000396247)
(-0.0412024 -0.257239 0.000300679)
(-0.0629115 -0.457676 0.000509887)
(-0.043289 -0.270098 0.000316846)
(-0.0577996 -0.384193 0.000437456)
(0.459927 3.93596 -0.000876188)
(0.488842 4.18347 -0.000721329)
(0.0844898 0.314076 -5.01517e-05)
(0.109474 0.44916 0.000503856)
(0.109566 0.449548 -0.000671081)
(0.0843904 0.313707 -6.60319e-05)
(0.142945 0.659093 -0.000148407)
(0.178441 0.784561 -0.000129502)
(0.17952 0.7894 -0.000157909)
(0.145975 0.673569 -0.000138155)
(0.109539 0.449434 0.000472954)
(0.084269 0.313254 -8.69283e-05)
(0.109492 0.449234 -0.000701359)
(0.0843412 0.313524 -7.18652e-05)
(0.0661299 0.996283 -0.000146002)
(-0.00286267 1.38369 -0.000203221)
(-0.00258928 1.24153 -0.00029793)
(0.0715762 1.08133 -0.00019352)
(-0.056346 1.37803 -0.000330556)
(1.39321 0.923169 -0.000255464)
(-0.045506 1.11183 -0.000316296)
(-0.0653847 1.59942 -0.000235373)
(-0.0602844 1.47443 -0.000321412)
(1.39423 0.923843 -0.000228622)
(-0.00240168 1.13522 -0.000289704)
(0.076877 1.1618 -0.000304741)
(-0.00221265 0.962588 -0.000247326)
(0.0720816 1.08915 -0.000213343)
(0.307197 1.39028 -0.000170945)
(0.234695 1.01908 -0.000188126)
(0.588335 2.88704 -0.00055225)
(0.337787 1.59722 -0.000360418)
(0.330368 1.56261 -0.000159545)
(0.598332 2.9364 -0.000556705)
(0.228683 0.992869 -0.000227229)
(0.298456 1.35032 -0.000313258)
(0.0773076 0.303754 -6.5924e-05)
(0.0712743 0.279855 -5.46149e-05)
(0.0763295 0.279831 -2.53876e-05)
(0.0693577 0.25421 -7.09867e-05)
(0.0715032 0.280594 -5.15039e-05)
(0.728082 4.55579 -0.000963074)
(0.454048 2.69214 -0.000486605)
(0.761015 4.76277 -0.000822119)
(0.482905 3.22932 -0.000673442)
(0.470253 3.14441 -0.000513568)
(0.471871 2.79741 -0.000513604)
(-0.0298487 -0.219935 3.79189e-05)
(-0.0180271 -0.122451 2.97262e-05)
(0.0011878 0.00392648 3.3137e-08)
(-0.0171595 -0.117355 2.14921e-05)
(0.00127244 0.00426569 1.66678e-07)
(0.0652989 0.342994 -5.27913e-05)
(0.164218 0.812104 -0.000125624)
(0.166603 0.824445 -0.000161493)
(0.0503506 0.271451 -6.64672e-05)
(0.0244555 0.138601 -2.94402e-05)
(0.0504377 0.27141 -4.45368e-05)
(0.0245276 0.13885 -2.52765e-05)
(0.0418246 0.15166 -9.79138e-06)
(0.0405978 0.147196 -4.80673e-05)
(0.0667219 0.243397 -0.000291568)
(0.0692554 0.252623 -0.000295101)
(0.0324017 0.113301 -0.000140982)
(0.0366031 0.132009 -0.000159258)
(0.0384565 0.134479 -0.000151674)
(0.0383373 0.138258 -0.00016202)
(0.276279 0.811033 -0.000113762)
(0.276564 0.811816 -8.35965e-05)
(0.287104 0.666998 -7.32739e-05)
(0.287021 0.666802 -7.12065e-05)
(-0.188905 1.75127 -0.000116999)
(-0.0611101 1.49493 -0.000127128)
(1.39282 0.923431 -0.000226186)
(-0.858587 2.79278 -0.000294318)
(-0.0632997 1.54847 -0.000161547)
(-0.199275 1.84652 -0.000227963)
(0.0769794 0.282349 8.79469e-06)
(0.0774666 0.284089 2.09506e-05)
(0.0414094 0.150238 9.30732e-06)
(0.0358925 0.126274 -1.89133e-06)
(0.0319643 0.112395 1.2056e-05)
(0.0398966 0.144705 1.41899e-05)
(0.419822 2.486 -0.00264504)
(0.402174 2.38103 -0.00256523)
(0.00311446 0.014985 -1.72437e-06)
(0.000399268 -0.000739232 1.61048e-05)
(-0.0247423 -0.155793 0.000177869)
(-0.0215226 -0.135948 0.000153586)
(-0.00445845 -0.0288683 4.84356e-05)
(-0.000867667 -0.00807523 2.42005e-05)
(1.37258 0.90901 -0.00112944)
(1.38145 0.914897 -0.00113545)
(1.38744 0.918886 -0.00113712)
(1.38224 0.915428 -0.00113573)
(-0.0186375 -0.110962 0.000145075)
(-0.0128415 -0.0774052 0.000104856)
(0.358694 2.12288 -0.00226379)
(0.389971 2.30857 -0.00248256)
(-0.0905455 -0.729518 0.000780315)
(-0.026207 -0.164822 0.000188455)
(-0.0303697 -0.190476 0.000219447)
(-0.0061253 -0.0385202 5.93583e-05)
(-0.0107852 -0.0655005 9.09889e-05)
(0.197501 0.856691 -0.0009709)
(0.530464 2.60096 -0.00282715)
(0.188433 0.817556 -0.000923108)
(0.489189 2.39794 -0.00264662)
(0.285574 2.433 -0.0025618)
(0.293964 2.50488 -0.00264731)
(0.0679549 0.27796 9.12412e-05)
(0.0547315 0.202982 -0.000199555)
(0.0575511 0.213478 -0.000212301)
(0.0640319 0.261822 -0.000581258)
(0.102031 0.446785 -0.000418052)
(0.0690751 0.316943 -0.000284398)
(0.0976268 0.427361 -0.000393161)
(0.073144 0.335783 -0.000307976)
(0.0608345 0.225703 -0.000226785)
(0.0584918 0.21698 -0.000216622)
(0.0727471 0.297678 9.27543e-05)
(-0.00247066 1.38143 -0.00139795)
(0.0577615 0.866043 -0.000889192)
(0.0590626 0.885651 -0.000907806)
(-0.00241556 1.35459 -0.00137162)
(-0.064719 1.59367 -0.00160207)
(1.37099 0.907935 -0.00112611)
(-0.0654523 1.61155 -0.0016207)
(-0.00249001 1.39066 -0.00140671)
(0.0605314 0.907816 -0.000929454)
(-0.00252157 1.40418 -0.00142069)
(0.0594905 0.892106 -0.000914011)
(-0.0642861 1.58308 -0.00159187)
(1.36839 0.906212 -0.00112345)
(-0.0630915 1.55383 -0.00156294)
(0.320218 2.72933 -0.00284518)
(0.314262 2.67835 -0.00279778)
(0.0443139 0.164199 -0.000151586)
(0.0486423 0.180314 -0.00017163)
(0.0574813 0.234876 -0.000512741)
(0.0535165 0.198459 -0.000194169)
(0.0621973 0.254275 8.96602e-05)
(0.0501118 0.185783 -0.000178386)
(0.08611 0.37655 -0.000329798)
(0.0636292 0.291725 -0.000253884)
(0.0913671 0.399747 -0.000359459)
(0.0588646 0.269654 -0.000225708)
(-0.0581355 1.43235 -0.00144067)
(-0.0604164 1.48833 -0.0014956)
(1.34862 0.893088 -0.00110141)
(0.0523103 0.783951 -0.000808417)
(-0.00217657 1.23531 -0.00125191)
(-0.0022847 1.29082 -0.00130644)
(0.0546538 0.819212 -0.000842847)
(-0.00231755 1.30708 -0.00132302)
(0.0572041 0.857619 -0.000881059)
(0.0554521 0.831234 -0.00085457)
(-0.00239033 1.34309 -0.00136044)
(-0.0610916 1.50487 -0.00151253)
(1.35395 0.896621 -0.00110666)
(-0.0626118 1.54211 -0.00155161)
(0.0756882 0.296613 -0.000378817)
(0.0760646 0.297949 -0.000379602)
(0.0560812 0.204914 -0.000278594)
(0.0562129 0.205535 -0.000282315)
(0.0756657 0.296702 -0.000378277)
(0.24359 1.14886 -0.00130066)
(0.409644 2.00567 -0.0022575)
(0.228723 1.03198 -0.00118721)
(0.177007 0.766114 -0.000912935)
(0.177983 0.770511 -0.000915756)
(0.235867 1.06481 -0.00122462)
(0.418133 2.0476 -0.0022733)
(0.255428 1.2052 -0.0013595)
(0.077713 0.304168 -0.000380029)
(0.0772565 0.302429 -0.000380054)
(0.07612 0.298117 -0.000378989)
(0.0561972 0.205293 -0.000277626)
(0.0578574 0.211229 -0.000278534)
(0.266342 1.77577 -0.00189664)
(0.425824 2.65792 -0.00285763)
(0.280459 1.65845 -0.00178714)
(0.287163 1.69823 -0.00182736)
(0.456821 2.85187 -0.00303525)
(0.446866 2.78967 -0.00297786)
(0.273048 1.82062 -0.00193055)
(0.00162546 0.00609544 2.47313e-05)
(-0.0232293 -0.137548 0.000176802)
(0.0576694 0.282412 -0.000229174)
(0.00910614 0.0456933 -1.15545e-05)
(-0.0257245 -0.151994 0.000194591)
(-0.00610798 -0.0359746 7.59545e-05)
(-0.0636272 -0.422709 0.000496152)
(-0.0510898 -0.318228 0.000383041)
(-0.0641217 -0.4664 0.000523281)
(-0.0492362 -0.306764 0.000365052)
(-0.0594487 -0.39506 0.000453214)
(0.468385 2.92426 -0.00310471)
(0.478153 2.98541 -0.0031612)
(0.29729 1.98279 -0.00208237)
(0.291052 1.94106 -0.00204271)
(-0.018203 -0.101934 0.00016455)
(-0.0354873 -0.208572 0.000269084)
(0.0509126 0.248813 -0.000187499)
(0.00573969 0.0278733 1.03098e-05)
(0.0446122 0.217468 -0.000149452)
(-0.03301 -0.194187 0.000248718)
(-0.00919425 -0.0527673 9.69115e-05)
(0.0295594 0.106794 -0.000150349)
(0.029857 0.107956 -0.000153831)
(0.0296064 0.106935 -0.000149556)
(0.0306084 0.110477 -0.000149753)
(0.122851 0.359827 -0.000317013)
(0.149105 0.436935 -0.000419616)
(0.198312 0.460168 -0.000479358)
(0.193034 0.447911 -0.000464464)
(0.165293 0.383491 -0.000386078)
(0.173582 0.402751 -0.000413437)
(0.156176 0.457711 -0.000446722)
(-0.618028 2.01229 -0.00192697)
(1.32964 0.880479 -0.0010764)
(-0.0567108 1.39751 -0.00140386)
(-0.170585 1.58517 -0.0015757)
(-0.590146 1.92168 -0.00190297)
(-0.518716 1.68848 -0.00152041)
(-0.537301 1.74933 -0.00168183)
(-0.147577 1.3721 -0.00136064)
(-0.0508377 1.25357 -0.00125454)
(1.31334 0.869644 -0.00103713)
(-0.572612 1.86473 -0.00179191)
(0.0889951 0.324709 -0.000326436)
(0.0818737 0.298704 -0.000317455)
(0.145336 0.136949 -0.000166292)
(0.402901 -0.167248 0.00012637)
(0.386944 -0.160622 0.00011996)
(0.15946 0.150269 -0.000176419)
(0.0551097 0.192845 -0.000182805)
(0.0513756 0.185347 -0.000183902)
(0.0467165 0.168513 -0.000177777)
(0.0412785 0.144355 -0.000156163)
(0.191097 0.180099 -0.000204062)
(0.421259 -0.174859 0.000122876)
(0.439845 -0.182537 0.000120487)
(0.175566 0.16546 -0.000188316)
(0.621199 3.04782 -0.0014329)
(0.257209 1.11657 -0.000507164)
(0.214656 0.932036 -0.000500357)
(0.601761 2.95262 -0.00154635)
(0.233669 1.01414 -0.000781843)
(0.663834 3.25612 -0.00236555)
(0.213889 0.928202 -0.0006546)
(0.663001 3.25214 -0.00253006)
(0.188379 0.817525 -0.000788645)
(0.614645 3.01464 -0.00278172)
(0.187855 0.815348 -0.000760515)
(0.610424 2.99375 -0.00279352)
(-0.0653647 -0.52902 0.000215754)
(-0.0330709 -0.242591 0.000106982)
(-0.0447736 -0.326807 0.00033659)
(-0.0578613 -0.421238 0.000461864)
(-0.0949439 -0.764624 0.000826551)
(-0.052678 -0.51862 0.00034678)