/*--------------------------------*- C++ -*----------------------------------*\
| =========                 |                                                 |
| \\      /  F ield         | OpenFOAM: The Open Source CFD Toolbox           |
|  \\    /   O peration     | Version:  2306                                  |
|   \\  /    A nd           | Website:  www.openfoam.com                      |
|    \\/     M anipulation  |                                                 |
\*---------------------------------------------------------------------------*/
FoamFile
{
    version     2.0;
    format      ascii;
    arch        "LSB;label=32;scalar=64";
    class       volScalarField;
    location    "0.1";
    object      p;
}
// * * * * * * * * * * * * * * * * * * * * * * * * * * * * * * * * * * * * * //

dimensions      [0 2 -2 0 0 0 0];

internalField   nonuniform List<scalar> 
111542
(
61.7774
63.0619
66.1558
71.242
78.4019
87.8487
99.7483
114.143
130.561
147.605
162.739
171.959
171.196
159.142
138.709
115.55
93.7081
74.8224
59.1465
46.5524
36.6052
28.9039
22.9907
18.3161
14.5606
11.4869
8.84684
6.63446
4.83022
3.34127
2.11818
1.12989
0.40152
-0.137747
-0.548051
-0.88189
-1.19603
-1.48181
-1.79966
-2.1611
60.621
61.8637
64.9251
69.9528
77.1093
86.7126
99.141
114.658
133.118
153.475
173.091
186.341
185.617
169.525
143.693
116.694
92.7923
72.846
56.7452
44.1197
34.4421
27.0729
21.4162
17.0661
13.6016
10.7192
8.27031
6.20336
4.47231
3.02868
1.84713
0.914175
0.216451
-0.289666
-0.656575
-0.939337
-1.19546
-1.46854
-1.80008
-2.2061
58.3325
59.5068
62.4275
67.2784
74.3325
84.1015
97.3052
114.766
137.166
164.359
193.023
214.637
214.836
189.456
153.132
119.572
91.8079
69.7743
52.8633
40.1875
30.9573
24.3967
19.3773
15.442
12.1138
9.28669
6.96605
5.06742
3.49139
2.18813
1.1427
0.344245
-0.23033
-0.619269
-0.87458
-1.05855
-1.24983
-1.50499
-1.86794
-2.38505
54.9772
56.0252
58.656
63.1011
69.7458
79.3204
92.9862
112.464
140.19
179.444
214.714
257.79
263.549
222.558
169.969
128.913
95.3857
69.9535
51.4508
38.0225
24.3984
18.7472
15.972
13.7501
10.9743
8.22816
5.92721
4.03322
2.44048
1.12405
0.0954791
-0.645419
-1.12072
-1.37059
-1.44739
-1.4172
-1.47107
-1.54958
-1.84052
-2.52838
50.6829
51.5253
53.6648
57.3501
63.0209
71.5268
84.3281
103.879
134.251
179.398
256.993
343.831
367.91
259.524
174.027
124.315
84.3398
57.5671
40.1692
29.004
21.6602
8.22932
7.75756
7.75409
6.34633
4.72031
3.29557
1.99731
0.80171
-0.21545
-0.977245
-1.45403
-1.66394
-1.65514
-1.46677
-1.0391
-1.11669
-1.06841
-1.2814
-2.16342
45.6668
46.2162
47.6399
50.1455
54.1107
60.2759
69.9893
85.7407
112.359
167.59
262.126
458.528
624.824
251.546
176.577
114.979
67.303
41.1817
26.2659
17.493
15.3015
12.1882
11.6537
7.3942
4.12572
2.24045
0.938264
-0.22506
-1.31661
-2.27336
-3.01742
-3.48647
-3.64821
-3.51849
-3.18106
-2.85407
-1.96293
-1.21155
-0.61001
-0.167421
40.2451
40.428
40.9493
41.9127
43.5005
46.0582
50.1875
56.904
67.948
107.843
184.365
416.135
1962.09
-410.761
204.687
75.5728
29.777
15.1403
7.8677
-0.224282
-5.12201
13.7274
13.3192
8.77343
6.16919
5.15687
4.53065
3.84192
3.07682
2.29906
1.56518
0.929507
0.439538
0.119024
-0.0351207
-0.0369051
0.223308
0.580823
1.34338
2.98738
34.8214
34.6035
34.1415
33.4013
32.3143
30.7133
28.2044
23.8506
15.2547
17.6984
0.601728
-164.104
-1021.8
-1059.07
-318.885
-104.946
-48.5928
-27.343
-17.3146
-10.3164
-3.05164
-5.88073
-5.036
-3.86511
-2.88083
-1.97757
-1.33426
-0.996351
-0.876933
-0.883606
-0.947146
-1.00711
-1.01062
-0.922979
-0.728153
-0.41477
0.0439924
0.644449
1.50676
2.68319
29.7835
29.2359
27.8477
25.5062
21.9496
16.6216
8.49911
-4.32256
-25.5053
-48.8505
-123.185
-269.962
-483.991
-513.753
-325.995
-179.181
-103.222
-62.8735
-40.0248
-25.4042
-14.9465
-8.0449
-4.98359
-2.23236
-0.152402
1.16217
1.89586
2.21739
2.24911
2.08649
1.81059
1.49429
1.19974
0.973157
0.845853
0.841084
0.976814
1.26048
1.70436
2.32657
25.6366
24.774
22.6274
19.0055
13.533
5.48339
-6.35675
-23.9785
-50.7114
-92.2633
-150.671
-224.623
-291.525
-300.641
-242.833
-168.84
-112.498
-76.0446
-52.2576
-35.7484
-24.0918
-16.5466
-11.5097
-7.75396
-5.00175
-3.12043
-1.87781
-1.07383
-0.576089
-0.289652
-0.13651
-0.0510443
0.0188034
0.110968
0.250019
0.454189
0.732905
1.08391
1.49577
1.9365
22.6633
21.5857
18.9213
14.4408
7.72878
-1.93879
-15.6728
-34.986
-61.7859
-98.0117
-143.743
-193.856
-233.574
-241.483
-211.142
-161.766
-116.51
-83.2167
-59.6995
-42.5426
-29.832
-20.6011
-13.8943
-9.04402
-5.55458
-3.09648
-1.41947
-0.325459
0.339658
0.698577
0.852814
0.886248
0.86609
0.8429
0.845014
0.91041
1.04701
1.24676
1.4911
1.74148
21.1125
19.9396
16.9978
12.1109
4.78855
-5.59617
-20.0687
-39.7936
-65.9692
-99.0191
-137.53
-176.144
-204.794
-211.585
-192.057
-155.714
-117.54
-86.3158
-62.9881
-45.5579
-32.4258
-22.67
-15.5716
-10.4566
-6.81076
-4.2229
-2.42793
-1.22885
-0.463229
0.000167603
0.264433
0.409926
0.50017
0.587048
0.64447
0.771807
0.956009
1.17729
1.41534
1.63353
61.3033
62.5268
65.542
70.46
77.3737
86.4849
97.9886
111.882
127.698
144.141
158.753
167.663
166.879
155.197
135.372
112.823
91.5336
73.0717
57.7452
45.4243
35.7432
28.2318
22.4132
17.8494
14.1845
11.1537
8.59644
6.45678
4.68899
3.23367
2.04957
1.11114
0.399084
-0.131652
-0.532071
-0.85237
-1.13939
-1.42591
-1.74555
-2.10232
60.1552
61.3485
64.3098
69.1697
76.0825
85.3544
97.3545
112.332
130.149
149.821
168.817
181.722
180.919
165.274
140.182
113.921
90.6077
71.1067
55.3727
43.0599
33.6438
26.432
20.8699
16.6126
13.2347
10.418
8.02847
6.01255
4.32247
2.91645
1.77118
0.871732
0.196844
-0.293054
-0.646401
-0.916852
-1.159
-1.42425
-1.74695
-2.14371
57.8867
59.0115
61.8283
66.5126
73.3227
82.7516
95.4984
112.366
134.028
160.372
188.179
209.201
209.495
184.786
149.46
116.816
89.6901
68.1112
51.584
39.2583
30.3621
23.9209
18.9064
15.0082
11.7577
9.01227
6.76299
4.92702
3.40497
2.14582
1.13478
0.361457
-0.197236
-0.579164
-0.833271
-1.01826
-1.20036
-1.44875
-1.80376
-2.31355
54.5629
55.5615
58.0918
62.3765
68.7833
78.0188
91.2143
110.057
136.947
175.144
210.906
253.268
258.85
218.213
166.751
126.663
93.6947
68.6048
50.396
37.2396
23.6864
18.2691
15.5258
13.2784
10.4948
7.7819
5.54593
3.73064
2.2167
0.971767
0.00443226
-0.687368
-1.12692
-1.35588
-1.43026
-1.41774
-1.43044
-1.49023
-1.76935
-2.44336
50.3117
51.1074
53.1565
56.6983
62.1542
70.3482
82.7083
101.65
131.206
176.397
253.033
338.932
362.053
253.583
169.982
122.291
82.9603
56.4669
39.2959
28.2801
20.8669
7.12335
7.13964
7.45883
6.12748
4.51542
3.12208
1.86689
0.711837
-0.272367
-1.00919
-1.46917
-1.67007
-1.6619
-1.50986
-1.25877
-1.13077
-1.05449
-1.24226
-2.08657
45.3494
45.8572
47.2083
49.6009
53.3974
59.3185
68.6889
83.9751
110.007
165.221
259.647
455.208
618.942
241.962
168.014
114.288
66.9343
40.9295
26.1355
17.2858
13.4517
9.21021
9.11554
5.49261
2.66196
1.12661
0.134847
-0.763053
-1.63948
-2.42853
-3.04842
-3.43344
-3.54455
-3.38852
-3.01435
-2.52964
-1.89893
-1.1571
-0.534175
-0.0539309
39.9879
40.141
40.613
41.5041
42.9903
45.4106
49.3672
55.8994
66.838
106.858
183.938
417.786
1950.78
186.533
81.9317
30.4983
15.0279
7.50201
-0.897442
-8.22662
13.5497
13.1525
8.40406
5.73327
4.71423
4.09505
3.43103
2.70911
1.98517
1.30748
0.724795
0.282044
0.0017555
-0.111701
-0.0624773
0.21169
0.546902
1.30477
2.93393
34.6018
34.3906
33.9065
33.1389
32.0257
30.4076
27.9155
23.6767
15.434
18.2061
2.30187
-157.582
-999.176
-1044.31
-313.464
-102.71
-47.7428
-27.222
-17.5773
-10.7266
-3.06862
-6.24867
-5.7142
-4.71125
-3.63465
-2.58437
-1.82202
-1.38535
-1.17779
-1.1076
-1.10704
-1.11578
-1.0803
-0.965108
-0.751584
-0.426715
0.0309873
0.617992
1.44223
2.61167
29.6527
29.0893
27.7028
25.3803
21.8662
16.624
8.67024
-3.83065
-24.4128
-47.4961
-119.971
-263.945
-475.39
-503.734
-320.363
-175.906
-101.276
-61.8313
-39.5852
-25.3474
-15.0768
-8.50128
-5.52992
-2.76107
-0.60641
0.768903
1.54131
1.89489
1.95987
1.83209
1.59163
1.30977
1.04668
0.847064
0.741817
0.754068
0.899488
1.18685
1.6344
2.24067
25.541
24.6792
22.5611
18.9921
13.6128
5.7243
-5.84585
-23.0244
-49.0338
-89.4213
-146.192
-218.266
-283.969
-292.975
-236.6
-164.579
-109.86
-74.5158
-51.4604
-35.4601
-24.1586
-16.8601
-11.8838
-8.12794
-5.37483
-3.48585
-2.22103
-1.38396
-0.848575
-0.523951
-0.333857
-0.214483
-0.11504
0.00118906
0.159274
0.37652
0.661704
1.01414
1.42426
1.86076
22.5981
21.5359
18.9093
14.4995
7.91836
-1.54196
-14.9531
-33.776
-59.8491
-95.06
-139.509
-188.27
-227.095
-235.102
-205.676
-157.767
-113.847
-81.5468
-58.7176
-42.0508
-29.6937
-20.702
-14.1154
-9.32777
-5.87092
-3.42054
-1.73067
-0.611062
0.0851943
0.476778
0.663109
0.72631
0.731949
0.729745
0.753841
0.831547
0.973458
1.17499
1.41942
1.67203
21.0647
19.9013
17.0174
12.1923
5.03493
-5.12873
-19.2588
-38.4906
-63.938
-96.091
-133.554
-171.157
-199.165
-206.039
-187.261
-151.934
-114.846
-84.549
-61.8919
-44.9484
-32.1645
-22.6526
-15.7091
-10.6963
-7.08679
-4.50799
-2.70706
-1.49006
-0.698909
-0.206624
0.0866952
0.258804
0.369949
0.464031
0.563887
0.703637
0.888871
1.10963
1.34817
1.57827
60.3543
61.4852
64.3031
68.8952
75.3419
83.825
94.523
107.416
122.067
137.29
150.805
159.018
158.243
147.264
128.594
107.277
87.055
69.4436
54.809
43.0594
33.8449
26.6684
21.0681
16.6785
13.1771
10.3019
7.90083
5.89945
4.24562
2.89106
1.79821
0.938723
0.283707
-0.203563
-0.567561
-0.85591
-1.11323
-1.37918
-1.67651
-2.00369
59.2273
60.3268
63.0857
67.6184
74.0591
82.6858
93.8369
107.737
124.262
142.514
160.181
172.103
171.425
156.753
133.137
108.322
86.1468
67.5193
52.504
40.7976
31.8684
24.9338
19.5407
15.4534
12.2565
9.60263
7.35075
5.45061
3.86024
2.54374
1.47964
0.65119
0.0329496
-0.41145
-0.72703
-0.963254
-1.17047
-1.40995
-1.70038
-2.05682
56.9985
58.0297
60.6441
65.0026
71.3356
80.0956
91.9319
107.597
127.736
152.284
178.279
198.179
198.453
175.226
142.034
111.189
85.2852
64.5959
48.8191
37.1693
28.9134
22.6236
17.5719
13.7716
10.7329
8.19202
6.10122
4.39307
2.98304
1.82341
0.899724
0.20157
-0.295949
-0.629789
-0.846834
-1.00046
-1.12502
-1.37746
-1.70528
-2.1816
53.7396
54.6458
56.9819
60.9531
66.8927
75.4551
87.7004
105.226
130.326
166.173
201.476
242.091
247.482
208.454
159.622
121.539
89.6949
65.3856
47.8456
35.2969
22.1271
17.0013
14.189
11.9262
9.23323
6.63689
4.51255
2.81032
1.41543
0.289721
-0.563499
-1.15125
-1.50235
-1.65999
-1.67758
-1.62507
-1.61479
-1.56886
-1.77886
-2.36577
49.5767
50.2869
52.162
55.4233
60.4552
68.025
79.4804
97.1235
124.855
168.943
242.8
326.28
348.51
242.582
163.79
118.425
79.7289
53.6004
36.8381
26.195
19.0879
4.49511
5.32287
6.20372
5.04469
3.48394
2.16759
1.03082
0.0183964
-0.814602
-1.40364
-1.72972
-1.82139
-1.73352
-1.53062
-1.27353
-1.01597
-0.977085
-1.11584
-1.88009
44.7197
45.1592
46.3715
48.5424
52.0039
57.431
66.0849
80.3386
104.933
158.987
251.942
445.205
604.151
228.749
165.387
112.542
65.4351
38.9902
24.0893
15.2098
10.533
3.09857
4.03291
1.4135
-0.99521
-2.29146
-2.99321
-3.52817
-4.0011
-4.37857
-4.61085
-4.65541
-4.48143
-4.09513
-3.53646
-2.87759
-2.19239
-1.43588
-0.666493
0.00896839
39.5005
39.5896
39.9689
40.7194
42.0015
44.1376
47.711
53.7713
64.2392
103.843
181.461
420.798
1929.25
200.056
81.3034
30.9932
13.9184
5.78732
-2.2851
-7.80623
12.3421
11.3541
6.24595
3.55284
2.62963
2.18232
1.75937
1.31944
0.886256
0.482603
0.140902
-0.10576
-0.229794
-0.229151
-0.105527
0.158713
0.620967
1.36549
2.89934
34.2031
33.9876
33.4659
32.6489
31.4813
29.817
27.3296
23.2517
15.5639
18.9543
5.7845
-143.551
-970.634
-1029.23
-301.318
-97.0886
-45.3491
-26.652
-17.9841
-11.6725
-4.40382
-6.71903
-6.80323
-6.1916
-5.05668
-3.82713
-2.87735
-2.25059
-1.85764
-1.62048
-1.47614
-1.36811
-1.24298
-1.06692
-0.815278
-0.473894
-0.0252891
0.555197
1.30973
2.45683
29.3928
28.8258
27.4519
25.1673
21.7349
16.6566
9.02327
-2.86108
-22.282
-44.2915
-112.816
-250.466
-455.738
-484.692
-306.436
-167.695
-96.8457
-59.6292
-38.7225
-25.3251
-15.6242
-9.57454
-6.60262
-3.7792
-1.57624
-0.145864
0.711513
1.17831
1.3709
1.37171
1.25401
1.0808
0.909471
0.777746
0.719159
0.756238
0.905725
1.18158
1.59703
2.15169
25.3794
24.534
22.4691
19.0065
13.8128
6.23875
-4.80558
-21.1111
-45.683
-83.7213
-137.202
-205.468
-268.337
-277.505
-224.274
-156.277
-104.796
-71.5898
-49.9005
-34.8419
-24.237
-17.4827
-12.4837
-8.67291
-5.95267
-4.08588
-2.78671
-1.8753
-1.24961
-0.833327
-0.557214
-0.363111
-0.202587
-0.0446039
0.1396
0.367306
0.648378
0.984933
1.3686
1.76658
22.5042
21.4729
18.9281
14.669
8.34048
-0.717097
-13.4962
-31.3525
-55.9928
-89.1903
-131.101
-177.231
-214.298
-222.35
-194.881
-149.817
-108.514
-78.138
-56.6297
-40.9046
-29.2389
-20.7217
-14.3409
-9.65809
-6.28511
-3.883
-2.19342
-1.03673
-0.282191
0.177209
0.432965
0.560877
0.622261
0.662729
0.718024
0.81151
0.955102
1.14721
1.37293
1.59454
21.0027
19.8797
17.0925
12.4369
5.56435
-4.15779
-17.6134
-35.8561
-59.9125
-90.2583
-125.616
-161.202
-187.911
-194.808
-177.456
-144.355
-109.495
-80.9774
-59.6
-43.5803
-31.4746
-22.4397
-15.7863
-10.9273
-7.39961
-4.86693
-3.07965
-1.84462
-1.01269
-0.46748
-0.117789
0.107845
0.264851
0.394203
0.525326
0.67821
0.862465
1.07364
1.2962
1.50085
58.9777
59.9837
62.5181
66.6522
72.442
80.0346
89.5732
101.022
113.976
127.382
139.229
146.339
145.514
135.534
118.578
99.1204
80.5104
64.1931
50.6022
39.7011
31.1646
24.4924
19.2298
15.0717
11.7773
9.11874
6.93723
5.14234
3.67312
2.48023
1.52711
0.782166
0.215357
-0.207234
-0.525267
-0.77993
-1.01032
-1.25159
-1.52367
-1.82783
57.8843
58.8537
61.327
65.3977
71.1693
78.8742
88.7979
101.123
115.725
131.811
147.391
157.708
157.121
143.921
122.58
99.9781
79.5522
62.2811
48.3674
37.5689
29.37
22.8893
17.7543
13.8527
10.8555
8.41751
6.37603
4.67044
3.25715
2.1002
1.17902
0.472122
-0.0494889
-0.421635
-0.685904
-0.884559
-1.06571
-1.27311
-1.53502
-1.86519
55.7081
56.6158
58.9467
62.8428
68.494
76.288
86.7885
100.652
118.446
140.129
163.127
180.943
181.118
160.342
130.581
102.533
78.5708
59.3304
44.7442
34.1404
26.922
20.897
15.6901
11.9372
9.20145
7.01149
5.21327
3.73849
2.51866
1.51406
0.713063
0.108728
-0.319687
-0.606713
-0.791085
-0.933639
-1.07079
-1.26183
-1.55054
-1.98465
52.5496
53.3301
55.394
58.9183
64.184
71.7598
82.5801
98.0635
120.268
152.099
185.758
223.06
228.157
192.363
148.078
113.032
83.0126
60.108
43.744
32.266
20.5085
15.9681
12.2075
9.50383
7.06358
4.91054
3.18407
1.81868
0.71751
-0.157222
-0.801279
-1.22318
-1.45171
-1.52978
-1.50399
-1.41977
-1.3604
-1.35211
-1.5408
-2.07919
48.5203
49.1124
50.7437
53.602
58.0153
64.6555
74.7197
90.2688
114.858
156.242
224.257
302.619
324.272
224.877
154.126
111.327
73.5012
48.3251
32.5035
22.6614
16.1391
2.01666
3.00417
4.10772
3.25415
1.93922
0.815522
-0.139762
-0.96702
-1.6197
-2.04034
-2.21096
-2.17823
-1.99926
-1.7288
-1.42989
-1.15414
-1.01248
-1.07083
-1.67566
43.7986
44.1658
45.1847
47.0333
49.9992
54.6759
62.1856
74.6743
96.5243
147.384
235.986
422.859
576.978
210.092
160.517
109.409
60.7495
34.3289
19.9383
11.3673
2.4759
-9.98073
-5.93761
-4.94572
-5.33231
-5.48537
-5.3945
-5.29371
-5.21558
-5.10514
-4.93036
-4.65107
-4.25738
-3.74814
-3.13567
-2.46957
-1.79273
-1.11537
-0.432193
0.352932
38.7571
38.8091
39.0612
39.6051
40.5797
42.265
45.1837
50.3133
59.5023
97.021
172.448
411.264
1894.04
178.618
86.7577
28.7676
10.2031
1.92128
-6.00073
-11.6379
10.1363
7.80553
2.32003
-0.378933
-1.26301
-1.55301
-1.67348
-1.70652
-1.68163
-1.62382
-1.52444
-1.39807
-1.21394
-0.968706
-0.661657
-0.274047
0.252858
1.07754
2.6271
33.698
33.4319
32.8559
31.9659
30.7067
28.9423
26.3895
22.389
15.1955
18.712
7.79448
-129.81
-913.057
-987.987
-276.105
-88.2874
-43.7766
-27.7511
-20.1221
-14.2109
-6.21643
-8.88414
-8.72711
-7.90128
-6.61749
-5.28574
-4.19508
-3.38035
-2.77828
-2.33222
-1.99642
-1.71294
-1.45723
-1.1914
-0.883195
-0.516706
-0.0754422
0.47685
1.20707
2.21924
29.0492
28.4765
27.1212
24.8875
21.5618
16.6978
9.48777
-1.56794
-19.3826
-39.7554
-102.529
-229.994
-422.33
-449.361
-281.845
-154.603
-90.5313
-56.8883
-37.9297
-25.7619
-17.1088
-12.3896
-8.41425
-4.94887
-2.72284
-1.42004
-0.62208
-0.135221
0.131557
0.244832
0.263123
0.236008
0.202339
0.192968
0.238218
0.355536
0.561159
0.869859
1.29707
1.84622
25.1784
24.358
22.3688
19.0559
14.1217
6.9866
-3.31993
-18.3879
-40.8842
-75.4289
-123.915
-186.102
-243.794
-252.747
-204.98
-143.762
-97.4324
-67.4122
-47.6854
-33.9847
-24.4408
-18.5421
-13.2677
-9.21075
-6.52744
-4.75434
-3.48876
-2.55642
-1.87928
-1.3938
-1.04007
-0.767353
-0.537486
-0.322841
-0.0952661
0.160075
0.45308
0.787183
1.15725
1.54142
22.4028
21.4171
18.9888
14.9435
8.96933
0.479154
-11.4084
-27.8892
-50.4678
-80.7195
-118.828
-160.864
-194.935
-202.794
-178.386
-137.913
-100.706
-73.1945
-53.5858
-39.2023
-28.5378
-20.7304
-14.6464
-10.0639
-6.77288
-4.44629
-2.79982
-1.65057
-0.876054
-0.37712
-0.0690288
0.117498
0.236911
0.330169
0.430191
0.556839
0.720629
0.921721
1.14824
1.37682
20.9523
19.8846
17.2348
12.8252
6.35205
-2.74713
-15.2568
-32.1001
-54.175
-81.8951
-114.129
-146.629
-171.224
-177.977
-162.739
-133.14
-101.712
-75.8181
-56.2788
-41.5719
-30.432
-22.0834
-15.8437
-11.1763
-7.74261
-5.27466
-3.52764
-2.30336
-1.45699
-0.880639
-0.490553
-0.221141
-0.0221042
0.144182
0.305216
0.47811
0.671296
0.882867
1.10104
1.30674
57.2555
58.1165
60.308
63.8846
68.8731
75.3744
83.4825
93.1323
103.945
115.011
124.646
130.259
129.216
120.429
105.682
88.6664
72.1996
57.6012
45.3567
35.5002
27.7707
21.7356
16.9672
13.1687
10.1494
7.73391
5.78298
4.20508
2.93322
1.91457
1.11737
0.49966
0.0354401
-0.308728
-0.566664
-0.775767
-0.967003
-1.16897
-1.39813
-1.65052
56.1968
57.0223
59.1514
62.6589
67.6114
74.1803
82.5764
92.9131
105.037
118.241
130.841
139.027
138.283
126.924
108.62
89.0259
71.018
55.6085
43.1327
33.4381
26.0874
20.3095
15.6918
12.0838
9.27833
7.024
5.17504
3.66213
2.43
1.43671
0.676502
0.104429
-0.309359
-0.599836
-0.809698
-0.94116
-1.07327
-1.23064
-1.43764
-1.69714
54.1077
54.8623
56.85
60.1806
64.9913
71.5824
80.3935
91.9264
106.592
124.3
142.977
157.24
157.019
139.558
114.533
90.464
69.3996
52.2776
39.2656
29.8705
23.678
18.4392
13.5212
9.85907
7.28671
5.34521
3.82127
2.618
1.63827
0.849046
0.234965
-0.198
-0.488489
-0.670637
-0.750123
-0.882646
-0.986735
-1.13363
-1.37075
-1.73329
51.0676
51.702
53.4363
56.4106
60.8383
67.1688
76.1467
88.8976
107.04
132.869
163.193
194.564
198.736
168.111
130.726
100.154
73.1755
52.6223
38.0271
28.0302
18.3472
15.5816
10.4467
6.54252
3.83055
1.86819
0.475223
-0.486843
-1.20558
-1.72733
-2.04141
-2.18159
-2.18182
-2.08372
-1.94942
-1.71659
-1.52969
-1.4491
-1.52664
-1.88846
47.1989
47.6628
48.9988
51.3581
54.9948
60.4437
68.6622
81.3038
101.234
137.642
194.853
262.581
281.888
195.043
137.629
98.192
62.7974
39.8534
25.7925
17.5879
14.3438
4.19705
2.64812
1.61102
0.235848
-0.953683
-1.7898
-2.39523
-2.79415
-2.97158
-2.90923
-2.67245
-2.34045
-1.96845
-1.57595
-1.23239
-0.964952
-0.797139
-0.82416
-1.30241
42.6728
42.9449
43.7281
45.1759
47.5126
51.2065
57.1494
67.0656
84.5218
128.934
207.504
377.35
522.87
181.911
163.877
97.0893
48.2545
23.1468
10.0557
2.55387
-8.45921
-36.4661
-32.6598
-29.6183
-27.4382
-24.9975
-22.4189
-19.8933
-17.4161
-15.014
-12.7796
-10.6865
-8.74991
-6.9755
-5.34946
-3.93166
-2.73029
-1.70059
-0.73919
0.41302
37.867
37.8559
37.9522
38.237
38.8134
39.8886
41.8679
45.5231
52.3496
84.9309
152.305
372.393
1840.6
290.533
64.7115
9.87984
-6.64406
-13.115
-17.8261
-20.2967
-2.77406
-5.35613
-9.65935
-11.0471
-10.7634
-9.92598
-8.89185
-7.74791
-6.57277
-5.44924
-4.40559
-3.46282
-2.6218
-1.91114
-1.28238
-0.691691
-0.0569049
0.796494
2.29836
33.0595
32.7586
32.1184
31.1332
29.7443
27.8201
25.1046
21.0292
14.1328
16.8226
6.68205
-121.553
-849.384
-870.329
-240.101
-82.9041
-47.0103
-33.4671
-26.3855
-20.5194
-13.7051
-20.5616
-16.9441
-13.1728
-10.5191
-8.45866
-6.81606
-5.5169
-4.47109
-3.61484
-2.91245
-2.31578
-1.80888
-1.35755
-0.936716
-0.511824
-0.076914
0.428272
1.06734
1.90532
28.6369
28.0658
26.7336
24.5576
21.3507
16.7284
10.0023
-0.0844345
-15.9412
-34.1445
-88.8324
-200.139
-368.389
-389.159
-244.626
-137.226
-83.1889
-54.1861
-37.512
-26.9348
-20.6394
-18.5857
-12.6552
-7.54278
-4.65574
-3.01442
-1.9295
-1.17818
-0.670124
-0.336547
-0.122664
0.0154552
0.107729
0.190257
0.285884
0.415185
0.607295
0.86917
1.21541
1.63639
24.9529
24.1653
22.2698
19.1353
14.5117
7.90466
-1.50474
-15.0441
-34.9176
-64.8987
-106.494
-159.641
-208.906
-217.317
-178.125
-127.161
-88.0332
-62.143
-44.8216
-32.7604
-24.5646
-19.8543
-14.6032
-10.2662
-7.36021
-5.39556
-3.94614
-2.84618
-2.02377
-1.41594
-0.964556
-0.619797
-0.347646
-0.114024
0.10572
0.330294
0.574661
0.841139
1.1251
1.39509
22.3087
21.3784
19.0923
15.3059
9.76114
1.96127
-8.8344
-23.6164
-43.6098
-70.0759
-103.114
-139.383
-168.95
-176.28
-156.281
-122.365
-90.7251
-66.8855
-49.6097
-36.8394
-27.3888
-20.5199
-15.0278
-10.6628
-7.40122
-5.03567
-3.31879
-2.08014
-1.20661
-0.607928
-0.207315
0.0581675
0.237978
0.372046
0.490539
0.614867
0.757683
0.92026
1.09272
1.24526
20.9252
19.9239
17.4401
13.3275
7.33756
-1.00352
-12.3526
-27.4711
-47.0782
-71.4691
-99.6375
-127.966
-149.534
-155.875
-143.367
-118.575
-91.7435
-69.2255
-51.9682
-38.8561
-28.8849
-21.3986
-15.7487
-11.3966
-8.09275
-5.65542
-3.88341
-2.60068
-1.67837
-1.02168
-0.556835
-0.224929
0.0202161
0.21442
0.384362
0.548599
0.71674
0.88874
1.05451
1.18884
55.3046
56.0112
57.8292
60.7941
64.9026
70.2042
76.7348
84.3909
92.8118
101.226
108.297
112.097
110.634
103.1
90.8776
76.7391
62.8694
50.3789
39.7473
31.0679
24.1622
18.7348
14.4981
11.1857
8.57203
6.48229
4.80445
3.46623
2.40507
1.56476
0.932351
0.431329
0.0572476
-0.222414
-0.437692
-0.617075
-0.787139
-0.969142
-1.17492
-1.40235
54.29
54.9596
56.7138
59.603
63.6541
68.9694
75.6701
83.7801
93.0893
102.942
111.93
117.506
116.234
106.881
92.1859
76.2949
61.3703
48.3226
37.5555
28.9987
22.2966
17.1137
13.1031
10.0204
7.61215
5.67551
4.10678
2.84872
1.84046
1.00635
0.46467
0.0506699
-0.25195
-0.462564
-0.611964
-0.727969
-0.844918
-0.987673
-1.17431
-1.4095
52.2894
52.8898
54.5051
57.2129
61.0953
66.3495
73.2633
82.1358
93.1401
106.018
119.161
128.551
127.426
113.675
94.3397
75.5256
58.6006
44.4095
33.3153
24.932
18.5018
14.0084
10.3511
7.50685
5.31249
3.62752
2.38068
1.49542
0.798698
0.276145
-0.197566
-0.46227
-0.613979
-0.700353
-0.748253
-0.797896
-0.864862
-0.9785
-1.16758
-1.45202
49.3742
49.8748
51.2518
53.6191
57.1159
62.0493
68.9251
78.4738
91.659
109.629
134.376
156.499
158.532
134.948
106.307
82.2397
60.3649
43.3325
30.9842
22.233
10.8268
8.35293
5.83313
3.47234
1.27665
-0.485961
-1.71864
-2.25509
-2.59112
-2.79507
-2.76427
-2.58251
-2.32189
-2.02706
-1.72875
-1.45344
-1.25016
-1.14939
-1.19578
-1.47405
45.6949
46.0396
47.056
48.8634
51.6321
55.7303
61.8056
70.9488
84.974
113.708
153.786
201.288
212.189
145.104
104.758
74.8777
46.6596
28.123
16.684
10.0673
8.00083
-4.51534
-5.20673
-5.70997
-6.4433
-6.75282
-6.67925
-6.58741
-6.35877
-5.99497
-5.19478
-4.29428
-3.43823
-2.68561
-2.03359
-1.51879
-1.14312
-0.904285
-0.843094
-1.14469
41.4369
41.5851
42.1104
43.1143
44.743
47.307
51.3957
58.119
69.7094
103.478
162.649
291.143
400.945
110.4
119.951
58.7298
18.7725
-0.786041
-10.4508
-14.9188
-11.7904
-25.1482
-27.3538
-31.2821
-31.7202
-30.3142
-28.1545
-25.5966
-22.5025
-19.0313
-15.8529
-12.8721
-10.1462
-7.76683
-5.66252
-3.99026
-2.66967
-1.62379
-0.726873
0.282934
36.8871
36.7962
36.7243
36.7226
36.8447
37.2074
38.0436
39.7877
43.2581
67.3365
117.969
299.256
1660.41
259.342
-22.4897
-66.4183
-74.5628
-75.002
-72.9848
-67.7696
-38.4664
-36.5316
-37.0923
-35.2101
-31.9216
-28.2756
-24.5711
-20.8679
-17.2892
-14.01
-11.0651
-8.48621
-6.26988
-4.55341
-3.13956
-1.98076
-1.0022
-0.00377038
1.46744
32.3528
32.0177
31.308
30.2149
28.6727
26.5479
23.594
19.3115
12.5384
13.48
4.07359
-95.8035
-667.522
-659.461
-196.473
-86.5397
-59.7521
-47.4614
-40.0862
-33.7738
-29.4653
-30.6004
-26.2473
-21.7758
-18.5173
-15.7708
-13.3891
-11.3141
-9.45887
-7.778
-6.27977
-4.96604
-3.82829
-2.82946
-1.98265
-1.20913
-0.618707
-0.0284818
0.591614
1.31837
28.1898
27.6277
26.3197
24.2032
21.1219
16.7546
10.5445
1.52795
-11.9822
-27.5306
-71.1052
-155.8
-281.743
-298.898
-194.813
-115.835
-74.1757
-50.4657
-36.1448
-26.9843
-23.8037
-18.3603
-14.9878
-11.8544
-9.59371
-7.88142
-6.4735
-5.2834
-4.26822
-3.40062
-2.66803
-2.05316
-1.54047
-1.10149
-0.725284
-0.407326
-0.0420903
0.302708
0.672976
1.09916
24.7237
23.9757
22.1819
19.2409
14.9559
8.92736
0.509908
-11.3094
-28.1534
-52.7406
-85.8768
-126.941
-164.231
-172.103
-144.367
-106.516
-76.0253
-54.8063
-39.9994
-29.4156
-22.0368
-18.0264
-14.453
-11.3154
-8.8409
-6.9372
-5.44188
-4.25256
-3.30499
-2.54787
-1.93921
-1.44301
-1.03264
-0.679948
-0.367187
-0.078663
0.207605
0.482918
0.752254
1.01051
22.2346
21.3659
19.236
15.7336
10.6603
3.62086
-5.96592
-18.8524
-35.9211
-58.009
-85.0048
-114.131
-137.871
-144.219
-129.64
-103.945
-78.8628
-59.2183
-44.5087
-33.4035
-25.0642
-19.0319
-14.4301
-10.8162
-8.04392
-5.9588
-4.39242
-3.21286
-2.3256
-1.65954
-1.15856
-0.777827
-0.481395
-0.239486
-0.0297633
0.164852
0.355815
0.544812
0.728837
0.905253
20.9307
20.0019
17.7012
13.9152
8.45611
0.950401
-9.11566
-22.3173
-39.1578
-59.763
-83.2138
-106.56
-124.345
-129.981
-120.769
-101.355
-79.921
-61.2913
-46.5791
-35.1752
-26.3919
-19.7634
-14.8108
-11.0533
-8.18993
-6.02628
-4.40399
-3.19171
-2.28729
-1.61263
-1.10741
-0.723709
-0.423937
-0.179205
0.0323628
0.226607
0.41133
0.587451
0.750139
0.894203
53.2599
53.8142
55.2603
57.6125
60.8401
64.9446
69.9073
75.5913
81.6573
87.4707
92.0273
93.9878
92.0389
85.6986
75.9598
64.721
53.5437
43.2835
34.3688
26.9461
20.9377
16.1648
12.4405
9.57964
7.34253
5.54389
4.0922
2.93503
2.02155
1.30506
0.7567
0.336081
0.0191292
-0.220743
-0.408208
-0.566605
-0.716617
-0.873462
-1.04445
-1.21874
52.2901
52.8094
54.1918
56.4619
59.6113
63.6762
68.692
74.599
81.14
87.7271
93.2696
96.0067
93.9386
86.4277
75.3328
63.2765
51.6895
41.2442
32.3577
25.1049
19.2906
14.6827
11.1365
8.5151
6.50019
4.88128
3.57635
2.5341
1.70122
1.03937
0.545885
0.176545
-0.096634
-0.297658
-0.450077
-0.576615
-0.699629
-0.837813
-1.00295
-1.19245
50.3843
50.8373
52.0866
54.1708
57.1249
61.0463
66.0732
72.3079
79.6972
87.8413
95.588
100.232
97.5631
86.7938
72.8487
59.4497
47.1011
36.2106
27.271
20.2008
14.5958
10.3206
7.65326
5.70751
4.01896
2.64554
1.63528
0.918064
0.381975
-0.0140213
-0.294764
-0.465477
-0.567358
-0.629593
-0.672556
-0.71689
-0.779406
-0.876876
-1.02294
-1.21439
47.6227
47.9764
49.003
50.7664
53.334
56.8751
61.6576
68.0208
76.3073
86.7167
97.8075
106.608
102.29
84.5493
67.2479
53.1201
40.1428
29.2989
20.9634
14.3486
7.86175
1.80209
1.95131
2.27601
1.51822
0.520284
-0.261361
-0.771477
-1.12307
-1.3359
-1.40361
-1.36938
-1.27575
-1.15342
-1.02486
-0.911963
-0.837534
-0.825659
-0.905472
-1.10941
44.1447
44.3613
45.0616
46.323
48.2263
50.9776
54.9139
60.5423
68.5279
87.9886
108.099
129.114
125.706
86.3449
63.5382
48.605
31.2928
18.6172
10.4548
5.00356
-0.383074
-13.9374
-11.4926
-8.60486
-7.19043
-6.29922
-5.53689
-4.87132
-4.2458
-3.63276
-3.00632
-2.42771
-1.92805
-1.51563
-1.1797
-0.92355
-0.747954
-0.654443
-0.672747
-0.891075
40.1422
40.1853
40.4565
41.0205
41.944
43.3824
45.6192
49.1245
54.6755
75.3733
101.39
146.679
169.536
29.9485
24.5805
5.76295
-5.36402
-10.2459
-13.3012
-15.3112
-20.8543
-12.4254
-14.4374
-16.6302
-16.9981
-16.4435
-15.4321
-14.0726
-12.3879
-10.5102
-8.64577
-6.8601
-5.24943
-3.88503
-2.77332
-1.91253
-1.25603
-0.759043
-0.383699
-0.122221
35.8741
35.7145
35.4767
35.1902
34.8601
34.5125
34.1976
33.9791
33.8859
47.196
58.1178
127.753
167.144
-721.572
-141.552
-97.1899
-69.4244
-61.4929
-55.8229
-52.272
-70.2668
-40.9265
-37.7797
-34.4336
-31.0178
-27.4619
-23.9657
-20.5911
-17.348
-14.2977
-11.521
-9.04912
-6.90877
-5.09936
-3.61259
-2.42121
-1.50084
-0.784766
-0.184105
0.390386
31.6407
31.2696
30.4935
29.2938
27.6013
25.2761
22.0676
17.5058
10.6393
9.1097
-12.3888
-81.472
-307.261
-260.937
-113.54
-65.1072
-42.2318
-30.7295
-24.0371
-18.8181
-10.3692
4.95761
2.32365
-0.913076
-2.03658
-2.30788
-2.3208
-2.18762
-1.93662
-1.61249
-1.26779
-0.935573
-0.627904
-0.348057
-0.0939213
0.136222
0.33342
0.533645
0.736127
0.877282
27.7429
27.1937
25.9147
23.8613
20.9099
16.7992
11.0859
3.00704
-8.85449
-27.3259
-50.8633
-105.103
-176.984
-191.359
-135.524
-88.0649
-59.4868
-41.2948
-29.5228
-21.0929
-10.5405
-1.6394
-2.83586
-4.31628
-4.2409
-3.63477
-3.02279
-2.4684
-1.95941
-1.50246
-1.10918
-0.777123
-0.503728
-0.277905
-0.08104
0.0956368
0.270122
0.4407
0.610792
0.764438
24.5126
23.8075
22.1185
19.3761
15.4348
9.99133
2.57271
-7.52813
-21.3268
-40.1172
-64.6629
-93.1723
-118.196
-124.878
-108.879
-84.1596
-62.3577
-46.0071
-33.9245
-24.6219
-16.9867
-11.9391
-9.16258
-7.09207
-5.17974
-3.59676
-2.4184
-1.5629
-0.936921
-0.479465
-0.149226
0.0877097
0.257876
0.385436
0.491003
0.586735
0.682591
0.775666
0.8569
0.88325
22.1918
21.3872
19.4158
16.2032
11.6089
5.33874
-3.02877
-14.0082
-28.1321
-45.7459
-66.461
-88.2407
-105.593
-111.096
-102.095
-84.4962
-66.1677
-50.8466
-38.7984
-29.318
-21.8147
-16.0804
-11.7591
-8.60507
-6.25126
-4.4769
-3.15486
-2.17643
-1.45129
-0.913709
-0.516995
-0.224845
-0.00764356
0.158604
0.293542
0.411358
0.51995
0.619785
0.704466
0.7558
20.9744
20.1182
18.0058
14.5536
9.63504
2.9744
-5.7995
-17.0733
-31.13
-47.9059
-66.5402
-84.7692
-98.5756
-103.41
-97.4095
-83.5569
-67.3919
-52.683
-40.5974
-30.9315
-23.2713
-17.3243
-12.8235
-9.46876
-6.93152
-4.98118
-3.49079
-2.37016
-1.53851
-0.926602
-0.479984
-0.155551
0.0814775
0.258416
0.396882
0.512651
0.613635
0.701071
0.767153
0.789636
51.2641
51.6797
52.783
54.5724
56.994
60.0123
63.5683
67.5097
71.5348
75.1478
77.639
78.1433
75.8855
70.649
63.0934
54.4173
45.6524
37.4354
30.1382
23.9431
18.8588
14.7912
11.6072
9.13767
7.17701
5.57686
4.26749
3.20813
2.35885
1.6814
1.14573
0.723967
0.391571
0.12681
-0.0900966
-0.27746
-0.451497
-0.624565
-0.803371
-0.985944
50.341
50.7233
51.7632
53.469
55.7968
58.7333
62.2504
66.2362
70.4267
74.3359
77.1885
77.9155
75.4605
69.611
61.4698
52.5375
43.7299
35.5481
28.3748
22.3858
17.5366
13.7077
10.7835
8.55075
6.76562
5.29605
4.09061
3.10924
2.31033
1.66207
1.14527
0.738908
0.419745
0.166749