/*--------------------------------*- C++ -*----------------------------------*\
| =========                 |                                                 |
| \\      /  F ield         | OpenFOAM: The Open Source CFD Toolbox           |
|  \\    /   O peration     | Version:  2306                                  |
|   \\  /    A nd           | Website:  www.openfoam.com                      |
|    \\/     M anipulation  |                                                 |
\*---------------------------------------------------------------------------*/
FoamFile
{
    version     2.0;
    format      ascii;
    arch        "LSB;label=32;scalar=64";
    class       surfaceScalarField;
    location    "0.1";
    object      phi;
}
// * * * * * * * * * * * * * * * * * * * * * * * * * * * * * * * * * * * * * //

dimensions      [0 3 -1 0 0 0 0];

oriented        oriented;

internalField   nonuniform List<scalar> 
338621
(
24.9951
0.00244425
0.00114873
24.9873
0.00522112
0.00243473
24.9749
0.00832758
0.00393242
24.9574
0.0116232
0.00578415
24.9337
0.0152183
0.00830292
24.9002
0.0215252
0.0116572
24.8527
0.0313187
0.0159712
24.7886
0.042205
0.021562
24.7254
0.0342538
0.028667
24.6807
0.00719923
0.0371816
24.6508
-0.0172447
0.0469559
24.5754
0.0179134
0.0573844
24.6028
-0.0955721
0.0680099
24.733
-0.208192
0.0779063
24.7758
-0.129493
0.0865268
24.8106
-0.128644
0.0936207
24.8436
-0.132555
0.0992847
24.8732
-0.133826
0.103918
24.9017
-0.136182
0.107432
24.9402
-0.148664
0.109919
24.985
-0.156089
0.111143
25.0256
-0.152053
0.111346
25.0633
-0.148336
0.110536
25.0994
-0.144694
0.108542
25.1336
-0.139751
0.105497
25.1648
-0.132673
0.101438
25.1922
-0.123759
0.0963731
25.2144
-0.112624
0.0904113
25.2304
-0.0998074
0.0838039
25.2398
-0.08612
0.0767025
25.2425
-0.0719556
0.0692839
25.2387
-0.0579945
0.061719
25.2292
-0.0447437
0.0542959
25.2147
-0.0326779
0.0471728
25.1964
-0.0221628
0.0404159
25.1759
-0.0136136
0.0341792
25.1539
-0.00654387
0.028481
25.1316
-0.00110456
0.0234418
25.1096
0.00295457
0.0190145
0.00533045
0.0152004
24.995
0.00487694
0.00112569
24.9872
0.0105736
0.00236088
24.9744
0.0171605
0.00385049
24.9567
0.0234626
0.00569414
24.9329
0.0306067
0.00819952
24.9027
0.0400675
0.0114577
24.8661
0.0518302
0.0158326
24.8192
0.0673189
0.0215284
24.7532
0.0711687
0.0288445
24.6767
0.0456132
0.0378527
24.6321
-0.021266
0.0484964
24.6172
-0.0271574
0.0599365
24.6547
-0.205049
0.0720653
24.7386
-0.375242
0.0831323
24.8201
-0.303433
0.0923656
24.8909
-0.299463
0.0997204
24.9475
-0.294884
0.105525
24.9963
-0.293023
0.110176
25.0508
-0.304592
0.113707
25.0975
-0.311551
0.116007
25.1339
-0.309774
0.117136
25.1677
-0.303033
0.117135
25.1995
-0.296388
0.116171
25.2309
-0.290212
0.114026
25.261
-0.280548
0.110754
25.2887
-0.266773
0.106366
25.3121
-0.248227
0.101002
25.3308
-0.226028
0.0947325
25.3436
-0.200385
0.0877593
25.3493
-0.172142
0.0802717
25.348
-0.143152
0.0724724
25.3398
-0.114295
0.0645715
25.3258
-0.0875605
0.0567876
25.3069
-0.0631183
0.0492909
25.2845
-0.0419104
0.0422183
25.2597
-0.0245008
0.0356892
25.2338
-0.0104073
0.0297484
25.2079
0.000334125
0.0244671
25.1831
0.00789819
0.0198277
0.0130487
0.015796
24.9953
0.00696884
0.00107573
24.9876
0.0159853
0.00226398
24.9754
0.0255222
0.00366703
24.9572
0.0361088
0.00551633
24.9323
0.0473319
0.00795306
24.9004
0.060591
0.011184
24.8595
0.076897
0.015617
24.8091
0.0961232
0.0214567
24.7384
0.112419
0.0292057
24.6382
0.106395
0.0391959
24.5591
0.00717634
0.0514963
-0.00412623
0.00680982
-0.00364709
24.6538
-0.0371364
0.0657175
-0.0569792
-0.036731
-0.0566345
24.5451
-0.0100739
0.0792811
-0.0945677
0.0222935
-0.0930672
24.7177
-0.181879
0.0919493
-0.124043
-0.211696
-0.121981
24.812
-0.129692
0.101403
-0.122747
-0.127118
-0.1197
24.8748
-0.119981
0.108527
-0.11858
-0.116722
-0.115662
24.9321
-0.117629
0.114133
-0.118613
-0.11493
-0.11552
25.0039
-0.12216
0.118682
-0.122088
-0.119559
-0.119879
25.0563
-0.120988
0.122135
-0.120658
-0.11877
-0.118897
25.0954
-0.119642
0.124231
-0.119563
-0.117729
-0.117948
25.1313
-0.470793
0.124993
25.1678
-0.464295
0.12472
25.2026
-0.454873
0.123659
25.2379
-0.447039
0.121514
25.273
-0.433822
0.118138
25.306
-0.413224
0.113488
25.3347
-0.384649
0.107652
25.358
-0.350071
0.100786
25.3734
-0.308884
0.0930848
25.381
-0.26452
0.0847897
25.3797
-0.218012
0.0761522
25.3704
-0.172475
0.0674293
25.3538
-0.129725
0.0588268
25.3316
-0.0915838
0.0506608
25.305
-0.058341
0.0429863
25.276
-0.0314672
0.0359824
25.2463
-0.010427
0.0296793
25.2171
0.00545451
0.0241396
25.189
0.0166265
0.0193367
0.0237045
0.0152202
24.9956
0.00932209
0.00100047
24.9888
0.0206182
0.00211445
24.9769
0.0339401
0.00340971
24.9598
0.0479349
0.00518516
24.9348
0.0647035
0.0074826
24.8998
0.0848828
0.0106124
24.8533
0.108293
0.0149396
24.7937
0.134732
0.0208026
24.7248
0.152253
0.0288538
6.13941
0.0394104
0.0398167
0.0567145
0.0401387
0.0562253
6.16137
6.13864
6.15929
6.12145
0.0192974
0.00583741
-6.10797
6.09541
-0.0323059
0.00774689
-6.099
6.12011
-0.0408845
0.0097276
-6.11222
6.13895
-0.22034
0.0117535
-6.15776
6.1721
-0.157245
0.0132231
-6.18564
6.1965
-0.144963
0.0141179
-6.20813
6.22264
-0.146969
0.0148158
-6.23502
6.24262
-0.14516
0.0153881
-6.24914
6.25513
-0.142783
0.0158004
-6.26075
6.26618
-0.141148
0.0160784
25.1341
-0.159659
0.133163
-0.161847
-0.159527
-0.162843
-6.27166
-6.27556
-6.27155
-6.27539
25.1676
-0.630379
0.132553
25.2035
-0.621943
0.13117
25.2443
-0.616598
0.128801
25.2866
-0.601389
0.125285
25.3284
-0.575535
0.120454
25.3681
-0.538699
0.114342
25.4015
-0.490581
0.107104
25.426
-0.432318
0.0989554
25.4395
-0.368184
0.0901561
25.4414
-0.300882
0.0809766
25.4317
-0.234463
0.0716878
25.4116
-0.172142
0.0625014
25.3836
-0.117383
0.0537965
25.3502
-0.070555
0.0455862
25.3135
-0.0328934
0.0381018
25.276
-0.0041614
0.0313059
25.2396
0.0164774
0.0253255
25.2066
0.0295217
0.0201486
0.0373245
0.0157163
24.9973
0.00997227
0.000898842
24.9913
0.0246553
0.00190452
24.9814
0.0406939
0.00306738
24.9657
0.0588433
0.00466922
24.9425
0.081078
0.00673624
24.9086
0.109154
0.00955977
24.8579
0.145477
0.0134579
24.7824
0.191249
0.0189191
6.16995
0.243274
0.0264488
6.16263
6.16963
6.16259
6.15352
0.0518674
0.00396667
6.12707
0.00561728
-6.15556
0.0208373
0.0126179
0.0123815
0.0210539
-0.044027
-6.07374
6.0388
0.00769574
-0.00142715
0.00485684
0.00443886
-0.00122677
0.0206293
-6.03771
6.05552
0.0101273
0.0294778
-0.0397069
-0.0398747
-0.0187606
0.0409779
-6.10763
6.13285
0.0130414
-0.0521143
-0.0667453
-0.104557
-0.0526157
0.237822
-6.16556
6.17797
0.0147425
-0.0512349
-0.0551922
-0.0543744
-0.0517858
0.185455
-6.18999
6.20359
0.0155101
-0.0516565
-0.0511091
-0.0507896
-0.0519526
0.17639
-6.21718
6.22898
0.0159125
-0.0500886
-0.0501546
-0.0498513
-0.0503705
0.172745
-6.2386
6.24597
0.0160558
-0.0479872
-0.0478836
-0.0476126
-0.048207
0.16826
-6.25266
6.25784
0.0159973
-0.0463207
-0.0463568
-0.0461823
-0.0464445
0.164131
-6.26287
6.26636
0.0158309
-0.0451981
-0.0453184
-0.045257
-0.0452125
0.161682
-6.27115
6.27464
-0.178932
0.0157951
25.0866
-0.749559
0.123043
-6.27668
-6.26806
-6.27719
-6.26848
25.0976
-0.753144
0.12018
25.1178
-0.75277
0.115951
25.1492
-0.743602
0.110882
25.1912
-0.722631
0.105039
25.2402
-0.686108
0.0984481
25.291
-0.632641
0.0912147
25.3389
-0.5637
0.0834955
25.3778
-0.482568
0.0754448
25.4043
-0.39455
0.0672316
25.416
-0.305172
0.0590071
25.4128
-0.219861
0.0509107
25.3954
-0.143275
0.043273
25.367
-0.0781927
0.0360618
25.3315
-0.0271346
0.0296892
25.2914
0.0122144
0.0237569
25.2511
0.0380394
0.0186906
25.2135
0.0527576
0.0144128
0.0574513
0.0108201
24.9999
0.00861231
0.000771787
24.9965
0.0263642
0.00163539
24.9889
0.0456451
0.00263884
24.977
0.066766
0.00393408
24.9591
0.0932106
0.00565747
24.9317
0.128596
0.00794418
24.888
0.178105
0.0110283
24.8146
0.249221
0.0153543
6.16979
0.358738
0.0211479
6.16933
6.16977
6.16915
-0.0681636
6.14385
0.090953
0.00315837
-0.0205078
-1.52719
1.52196
0.0251417
0.000589595
-0.0203573
-1.50344
1.49118
0.0319019
0.000725942
-1.46719
0.0515529
1.47696
-0.0624534
0.00113844
-1.52816
0.0846457
1.53673
-0.0946927
0.00148747
-1.53504
0.0626309
-0.0670814
0.00220395
1.53728
-1.54694
0.0608928
-0.0658296
0.00234228
1.54954
0.0582614
-1.55523
1.55663
-0.0619954
0.00233276
0.0541716
-1.55934
1.55982
-0.0567602
0.00211303
0.0514827
-1.56031
1.56038
-0.0532348
0.00168277
0.049386
-1.55985
1.55956
-0.050261
0.00116665
-1.55339
0.192595
6.15702
-0.183886
0.0122756
-1.53842
-1.55219
-1.534
23.9395
-0.860971
0.0492127
-6.10546
-5.83735
-6.10498
-5.82945
24.0009
-0.860931
0.046397
24.0693
-0.863451
0.0422841
24.1475
-0.859488
0.0377
24.2353
-0.843692
0.0332671
24.3315
-0.811597
0.0292907
24.434
-0.761093
0.0259633
24.5394
-0.692498
0.0233531
24.644
-0.608532
0.0214063
24.7432
-0.513712
0.0199684
24.8329
-0.41378
0.0188549
24.91
-0.314792
0.0178234
24.9722
-0.222223
0.0167632
25.0189
-0.140413
0.0155408
25.0501
-0.0722815
0.0138978
25.0689
-0.0189537
0.0124253
25.0771
0.0192006
0.0106248
25.078
0.0431404
0.00872038
0.0531617
0.00681841
25.003
0.00472073
0.000634763
25.0036
0.0244762
0.00132697
25.0007
0.0463906
0.00213155
24.9949
0.0694067
0.00307858
24.9861
0.0977681
0.00429068
24.9724
0.13642
0.00586019
24.9524
0.190235
0.00779826
24.9209
0.270522
0.0102382
6.21286
0.399754
0.0129834
6.22094
6.21253
6.22058
-0.109546
6.19729
0.123321
0.00180697
-0.04046
-1.54187
1.53567
0.0463703
0.000286112
-0.0839657
-1.50599
1.48725
0.102477
0.000225297
0.00431215
-0.0745403
0.0747221
-0.00452464
3.08001e-05
-0.0213698
0.000449875
0.0208819
2.60732e-06
3.54586e-05
-0.218017
0.012621
-0.023717
-0.000493691
0.229607
-1.20416
0.0619318
-0.0817146
-0.00129348
1.22524
0.0563926
-1.26961
1.27902
-0.065301
-0.000506738
0.0542378
-1.30681
1.31573
-0.0638104
0.000653182
0.0501366
-1.33828
1.34526
-0.0585912
0.00147435
0.047155
-1.36347
1.3703
-0.0557823
0.00180252
-1.41148
0.21596
5.89383
-0.240291
-0.00454336
-1.50461
-1.43929
-1.50958
24.2484
-0.800599
-0.0931304
-5.93681
-6.18139
-5.91759
-6.17988
24.2679
-0.784577
-0.0957584
24.2765
-0.774923
-0.0971763
24.2759
-0.761373
-0.0975021
24.2681
-0.739426
-0.0964371
24.2572
-0.706856
-0.0938109
24.2482
-0.662376
-0.0897432
24.246
-0.605917
-0.0843288
24.2544
-0.539086
-0.0778497
24.2759
-0.464635
-0.0705951
24.3112
-0.386189
-0.0629132
24.3593
-0.307813
-0.0550471
24.4177
-0.233247
-0.0473754
24.483
-0.165653
-0.0400424
24.5513
-0.10735
-0.0333017
24.6191
-0.0594935
-0.0272598
24.6827
-0.0224575
-0.0218874
24.7385
0.00466002
-0.0172965
0.0235717
-0.0134537
25.0048
-0.000287706
0.000502227
25.01
0.018198
0.00101883
25.015
0.039868
0.00157585
25.019
0.0632211
0.00219501
25.021
0.092974
0.00284957
25.0261
0.127686
0.00359374
25.0384
0.173723
0.00426357
25.0648
0.239601
0.00462264
6.27481
0.343142
0.00421278
6.28262
6.27497
6.28476
-0.115372
6.28268
0.107128
0.000366089
-0.0458131
-1.57818
1.57993
0.044075
-1.97582e-05
-0.0860414
-1.599
1.61437
-0.00031629
0.0709819
-0.0264028
-1.71678
1.75667
-0.00147205
0.05743
-0.0214459
-0.0265063
-0.0214973
0.102719
-1.71643
1.68656
-0.00154348
-0.0713165
0.105493
-1.612
-0.00196683
1.60127
-0.0928077
0.0813571
-1.58658
-0.0021611
1.58364
-0.0762577
0.0604834
-1.57896
1.57801
-0.0573208
-0.00221054
0.0617118
-1.57609
1.57419
-0.0577033
-0.00211263
0.0566582
-1.57335
1.5725
-0.0538676
-0.00194928
0.0536391
-1.57085
1.57008
-0.051082
-0.00178778
-1.56674
0.206203
6.258
-0.184317
-0.0144589
-1.56609
-1.56642
-1.56618
24.9894
-0.643219
-0.12143
-6.25638
-6.25497
-6.25827
-6.25572
24.9538
-0.627835
-0.121128
24.9107
-0.612003
-0.119772
24.8624
-0.595474
-0.117633
24.8111
-0.573561
-0.114512
24.7592
-0.5448
-0.110129
24.7098
-0.508496
-0.104496
24.6662
-0.46467
-0.09761
24.6319
-0.415161
-0.0896901
24.6092
-0.360926
-0.0810098
24.5992
-0.304251
-0.0719555
24.6023
-0.248171
-0.0627228
24.6172
-0.19431
-0.0538091
24.6415
-0.144616
-0.0453558
24.6732
-0.101336
-0.0376483
24.709
-0.0645875
-0.0307821
24.7462
-0.0348559
-0.0247944
24.7822
-0.0116091
-0.0196652
0.00567415
-0.0153718
25.0057
-0.00531547
0.0003036
25.0141
0.00904949
0.000694961
25.0272
0.0257937
0.00104048
25.0387
0.0504831
0.00133304
25.0543
0.075951
0.00151898
25.0781
0.102434
0.00148889
25.1166
0.134246
0.00106071
25.181
0.175641
-0.000254039
6.32172
0.239547
-0.00303394
6.31987
6.32594
6.3202
-0.0920892
6.33811
0.0764281
-0.000729166
-0.0342867
6.41609
0.0913938
-0.00185621
-0.0355039
-0.0344029
-0.0350597
-6.36636
-0.0344921
6.52272
0.0792358
-0.00413187
-0.0272104
-0.0343965
-0.0271884
-6.47455
-0.00765669
-6.55495
6.52229
-0.00463575
-0.00737829
0.0150176
-0.00801748
0.0452803
0.0463302
-6.54411
6.52196
-0.125527
-0.010398
0.0400053
0.0371907
0.0344966
0.0565395
-6.45683
6.41863
-0.181689
-0.0124556
0.0569462
0.0589834
0.0598444
0.0582109
-6.37819
6.34565
-0.181459
-0.0136973
0.0570104
0.057008
0.05547
0.0489476
-6.32706
6.31525
-0.165472
-0.0145486
0.0481428
0.0476127
0.0471513
0.0476454
-6.30566
6.29862
-0.167246
-0.015093
0.0475617
0.0470913
0.0470909
0.0454131
-6.29272
6.28556
-0.157265
-0.0153749
0.0450658
0.0448718
0.0444462
0.0432319
-6.2792
6.27139
-0.147832
-0.0154964
0.0428986
0.0427225
0.0422841
0.164445
-6.26721
6.26225
-0.143899
-0.0155904
24.9855
-0.475473
-0.128774
-6.25622
-6.25598
-6.25656
-6.25573
24.9457
-0.460533
-0.12746
24.9067
-0.447557
-0.125428
24.8667
-0.432882
-0.122567
24.8268
-0.414982
-0.118663
24.7884
-0.392685
-0.11364
24.7534
-0.365936
-0.107561
24.724
-0.334686
-0.100556
24.7012
-0.299632
-0.0927975
24.6866
-0.261828
-0.0844988
24.6807
-0.222393
-0.0759239
24.6833
-0.183533
-0.0672544
24.6935
-0.145716
-0.0587179
24.7106
-0.11123
-0.0505751
24.7325
-0.0802709
-0.0429626
24.7574
-0.0534825
-0.0359847
24.7841
-0.0318062
-0.0297173
24.811
-0.0143178
-0.0241937
-0.000710042
-0.0193861
25.0063
-0.0104164
0.00024481
25.0162
-0.00129275
0.000474989
25.0252
0.0162166
0.000628686
25.042
0.0331024
0.000676115
25.069
0.048577
0.000463942
25.1031
0.0686629
-0.000149735
25.1516
0.0873719
-0.00140148
25.2195
0.111711
-0.00379634
25.3309
0.136391
-0.00805831
25.4396
0.150976
-0.0152325
-0.0638355
-0.0596626
-0.0609216
-0.0596602
25.5924
0.13894
-0.0263804
-0.0635388
-0.0670987
-0.0643422
-0.0701892
25.7315
0.0602643
-0.0420693
-0.0444848
-0.0303495
-0.0481708
-0.0343928
25.6116
-0.154836
-0.0602331
0.0205011
0.12439
0.0185927
0.171276
25.5174
-0.241596
-0.0787474
0.0850652
0.11958
0.100041
0.109603
25.4452
-0.257761
-0.0939608
0.0866267
0.152802
0.0343042
0.150161
25.3539
-0.367267
-0.105264
0.140761
0.144506
0.138052
0.140761
25.2613
-0.342868
-0.112845
0.136532
0.141132
0.133232
0.137693
25.1832
-0.359123
-0.11797
0.141832
0.139812
0.137945
0.135846
25.1246
-0.343913
-0.121241
0.134007
0.131802
0.130349
0.127708
25.0822
-0.329896
-0.123061
0.125409
0.125977
0.120711
0.123349
25.0418
-0.319051
-0.123654
0.12227
0.122053
0.11977
0.119105
25.0004
-0.311081
-0.122978
24.963
-0.301715
-0.1214
24.9274
-0.292806
-0.119039
24.8926
-0.282273
-0.115845
24.8591
-0.269758
-0.111636
24.828
-0.255111
-0.106523
24.7996
-0.236944
-0.100576
24.7757
-0.216877
-0.0939079
24.7569
-0.194103
-0.0866658
24.7443
-0.170256
-0.0790149
24.7385
-0.145407
-0.0711483
24.7386
-0.120401
-0.0632698
24.7453
-0.0968458
-0.0554879
24.7566
-0.0744901
-0.0480717
24.7721
-0.0546664
-0.0410986
24.791
-0.0377406
-0.0346795
24.8117
-0.023632
-0.0288785
24.8327
-0.011517
-0.023728
-0.00266388
-0.0192228
25.0066
-0.0153192
0.000173248
25.0098
-0.00474058
0.000321775
25.0177
0.00806906
0.000351472
25.0375
0.0131083
0.000247853
25.0635
0.0229698
-0.000207273
25.0937
0.0399247
-0.0011851
25.1427
0.0415148
-0.00293449
25.2055
0.0550467
-0.00587502
25.2869
0.0659787
-0.0106986
25.3857
0.0704596
-0.0180403
25.4962
0.0570705
-0.0284925
25.5799
0.0189929
-0.0423762
25.5589
-0.0757034
-0.0583086
25.5435
-0.152012
-0.0742076
25.4171
-0.0433527
-0.0879234
25.3286
-0.179742
-0.0988344
25.2699
-0.177419
-0.106527
25.197
-0.173874
-0.112051
25.1377
-0.168751
-0.11564
25.0885
-0.162802
-0.11775
25.0452
-0.157087
-0.118596
25.0048
-0.152421
-0.118188
24.9678
-0.147784
-0.116806
24.9328
-0.143338
-0.114452
24.8999
-0.138139
-0.111217
24.8693
-0.132115
-0.106999
24.8408
-0.124601
-0.101994
24.8162
-0.116016
-0.0962761
24.7956
-0.106404
-0.0898907
24.7798
-0.0952117
-0.0830474
24.7692
-0.0837394
-0.0758744
24.7637
-0.0713828
-0.068537
24.764
-0.0595447
-0.0611713
24.7688
-0.0476957
-0.053956
24.7784
-0.0370633
-0.0470337
24.7913
-0.0270617
-0.0404951
24.8068
-0.0188572
-0.034428
24.8239
-0.0117641
-0.0289007
24.8421
-0.00576741
-0.0239429
-0.00172716
-0.0195763
24.9869
0.000159324
24.9819
0.00030683
24.9898
0.000276521
25.0029
0.000161981
25.0265
-0.000412429
25.0682
-0.00148764
25.1134
-0.0033789
25.1753
-0.00651435
25.2531
-0.0114818
25.3426
-0.0186838
25.4284
-0.028518
25.4886
-0.0410898
25.4683
-0.0552984
25.3859
-0.0696091
25.4252
-0.0823999
25.3389
-0.0931748
25.2628
-0.101002
25.1957
-0.106486
25.1374
-0.110171
25.0871
-0.112402
25.0436
-0.113397
25.0045
-0.113206
24.9687
-0.111957
24.9351
-0.10969
24.9036
-0.106592
24.8742
-0.102587
24.8474
-0.0978029
24.8238
-0.0923815
24.8036
-0.0862624
24.7882
-0.0797292
24.7773
-0.0729044
24.7718
-0.0658681
24.7711
-0.0588146
24.7753
-0.0518912
24.7835
-0.045301
24.7955
-0.0390568
24.8099
-0.0332513
24.8261
-0.027955
24.8436
-0.0232108
-0.0190462
24.9956
0.00145881
0.00231147
24.9887
0.00433004
0.00479691
24.9775
0.00702954
0.00774548
24.9611
0.0103082
0.01146
24.9392
0.0133191
0.0162968
24.9091
0.0182568
0.0227107
24.8663
0.0267904
0.0311401
24.8079
0.0370778
0.0420394
24.7509
0.0290351
0.0557528
24.7129
0.00168524
0.0726106
24.686
-0.0185804
0.09184
24.6215
0.00876003
0.112782
24.648
-0.0926953
0.133957
24.7642
-0.19248
0.153972
24.7961
-0.11704
0.171198
24.8205
-0.116711
0.185151
24.8457
-0.122948
0.196206
24.8693
-0.125566
0.204959
24.8937
-0.129295
0.21157
24.9322
-0.145273
0.216092
24.9743
-0.149808
0.218402
25.0136
-0.146939
0.218663
25.0511
-0.144063
0.216869
25.0873
-0.140869
0.21299
25.1215
-0.135847
0.207019
25.1531
-0.129269
0.199
25.1806
-0.120311
0.189067
25.203
-0.109411
0.177437
25.2195
-0.0971627
0.164444
25.2295
-0.0838317
0.150464
25.2327
-0.0697738
0.135876
25.2292
-0.0558814
0.121085
25.2202
-0.0432267
0.106471
25.2067
-0.0317404
0.0924144
25.1892
-0.0212619
0.0791518
25.1694
-0.0129584
0.0669196
25.1482
-0.00605771
0.055797
25.1265
-0.000779525
0.0459187
25.1054
0.00288817
0.0372473
0.00540909
0.0296967
24.9957
0.00300072
0.0022552
24.9887
0.00870874
0.00469431
24.977
0.0146837
0.00760225
24.9605
0.0207261
0.0112862
24.9382
0.0272536
0.0161028
24.9099
0.0348246
0.022531
24.8759
0.044811
0.0310452
24.8322
0.059333
0.0422174
24.768
0.0647499
0.0565882
24.6904
0.0418387
0.0745736
24.6456
-0.0214923
0.0958308
24.5817
0.0130803
0.119369
24.6155
-0.197549
0.143231
24.7469
-0.406057
0.165408
24.8275
-0.28934
0.183769
24.896
-0.284454
0.19833
24.9485
-0.280565
0.209888
24.9937
-0.280299
0.218929
25.0475
-0.295704
0.225726
25.0921
-0.304567
0.230181
25.1274
-0.300574
0.232336
25.1605
-0.295564
0.23236
25.1919
-0.289827
0.230307
25.2229
-0.283955
0.226051
25.2529
-0.274822
0.219562
25.2801
-0.261106
0.210898
25.3035
-0.242928
0.200233
25.3223
-0.22141
0.187812
25.3349
-0.196009
0.173967
25.3406
-0.168311
0.159083
25.3396
-0.139888
0.143574
25.3322
-0.111838
0.127867
25.3185
-0.085125
0.112392
25.3
-0.0614221
0.0974761
25.2784
-0.0409005
0.0834243
25.2541
-0.023363
0.0704494
25.2289
-0.00982094
0.0586895
25.2039
0.00042283
0.0482179
25.1793
0.0082961
0.0390401
0.0127999
0.0310468
24.9957
0.0046072
0.00215374
24.9889
0.013043
0.00449917
24.9773
0.0223229
0.0073133
24.9604
0.0319373
0.0109012
24.9369
0.0425389
0.0156342
24.9062
0.0541387
0.0220232
24.8673
0.0681638
0.0306456
24.8195
0.0857498
0.0422391
24.752
0.103092
0.0576668
24.6548
0.0999379
0.0777109
24.5746
0.00638022
0.102604
-0.00336583
0.00621614
-0.0020355
24.7067
-0.0367387
0.130933
-0.0568649
-0.0355993
-0.0547959
24.564
0.0229173
0.159216
-0.0931895
0.0255771
-0.0893786
24.7264
-0.212973
0.185046
-0.122155
-0.208876
-0.116963
24.8167
-0.127209
0.204225
-0.119651
-0.122071
-0.113632
24.8756
-0.116982
0.218709
-0.115969
-0.111505
-0.109859
24.9299
-0.115565
0.230369
-0.116222
-0.109789
-0.110391
24.9993
-0.120344
0.239698
-0.120953
-0.114718
-0.115464
25.0506
-0.120134
0.246751
-0.120678
-0.114934
-0.116306
25.0904
-0.120016
0.25128
-0.120066
-0.115772
-0.115706
25.1276
-0.466151
0.253163
25.1634
-0.459818
0.253019
25.1981
-0.451757
0.25081
25.2329
-0.444145
0.246863
25.2671
-0.431072
0.240055
25.2992
-0.410615
0.230861
25.3276
-0.382494
0.218732
25.3499
-0.347691
0.204739
25.3651
-0.307096
0.189025
25.3728
-0.263368
0.172083
25.3714
-0.216749
0.154435
25.3622
-0.171856
0.136616
25.3467
-0.129676
0.118876
25.3249
-0.0913483
0.102409
25.299
-0.0588375
0.086796
25.271
-0.0318953
0.0725308
25.2421
-0.0109779
0.0597428
25.2133
0.00478711
0.0485436
25.1862
0.015911
0.0388365
0.0229656
0.0305022
24.9966
0.00590145
0.00199811
24.9901
0.0172888
0.00418942
24.9788
0.029981
0.0068313
24.9621
0.0433177
0.0102174
24.9385
0.0584786
0.0147255
24.9048
0.077213
0.0208834
24.859
0.0990123
0.0293975
24.7995
0.124448
0.0411662
24.7288
0.144592
0.0574843
6.14044
0.0392751
0.0800074
0.0544637
0.039002
0.0540851
6.15999
6.14099
6.15971
-0.011595
6.12278
0.0179984
0.0176227
-0.0154958
-6.11052
6.09825
-0.0324072
0.0234969
-0.0195508
-6.10204
6.09435
0.020675
0.0296133
-0.023551
-6.10975
6.14166
-0.256755
0.0355477
-0.0264561
-6.15996
6.17383
-0.154354
0.0397804
-0.0283328
-6.18708
6.19773
-0.141896
0.042561
-0.0297447
-6.20858
6.22283
-0.144953
0.0448183
-0.0309066
-6.23563
6.24318
-0.14379
0.0467613
-0.0318126
-6.24946
6.25561
-0.142778
0.0482991
-0.0324305
-6.26046
6.26611
-0.142664
0.0494391
25.1317
-0.162903
0.281571
-0.164983
-0.163337
-0.163267
-6.27172
-6.27511
-6.27064
-6.27417
25.1663
-0.642857
0.280999
25.2018
-0.633784
0.277654
25.2412
-0.628069
0.273292
25.2822
-0.612681
0.265818
25.3226
-0.586255
0.255691
25.361
-0.548846
0.242278
25.3936
-0.499895
0.226699
25.4176
-0.441308
0.209175
25.4306
-0.376566
0.190268
25.4326
-0.308356
0.17057
25.4233
-0.24152
0.150681
25.4037
-0.178495
0.130897
25.3765
-0.122782
0.11249
25.3437
-0.0755455
0.0950497
25.3081
-0.0373117
0.0791128
25.2712
-0.00762112
0.0648664
25.2357
0.0132966
0.0523016
25.2035
0.0268107
0.0414849
0.0350163
0.0322199
24.9982
0.00561629
0.00178822
24.9929
0.0206347
0.00375719
24.9831
0.0365692
0.00612997
24.968
0.0536586
0.00916852
24.9454
0.0743712
0.0132261
24.9125
0.100785
0.0185512
24.8629
0.135253
0.0266263
24.7887
0.179598
0.0376572
6.17173
0.232056
0.0535088
6.1647
6.17243
6.16507
-0.00788726
6.15617
0.0506372
0.0120507
-0.0112337
6.12922
0.0172147
-6.15831
0.0201227
0.0117709
0.0203452
0.0115108
-0.040675
-0.0154759
-6.0762
6.04252
0.0238412
-0.00187217
0.00358968
-0.0019949
0.00361434
0.0221453
-0.0204529
-6.04069
6.05428
0.0313903
0.0522574
-0.0403154
0.0517342
-0.0399598
-0.0479506
-0.0257814
-6.09486
6.13618
0.0387126
-0.0510237
-0.129099
-0.0517692
-0.128511
0.306421
-0.0288293
-6.16715
6.1785
0.0422489
-0.049498
-0.0535103
-0.0504221
-0.0526521
0.181439
-0.0300785
-6.1916
6.20515
0.0439613
-0.0500831
-0.0501095
-0.0509001
-0.049293
0.172907
-0.0308078
-6.21819
6.22952
0.045426
-0.0488859
-0.0492248
-0.0495192
-0.0485583
0.170155
-0.0313245
-6.2388
6.24601
0.0467908
-0.0472222
-0.0474059
-0.0479526
-0.0468713
0.166762
-0.031655
-6.25282
6.25789
0.0479667
-0.0464303
-0.0465603
-0.04685
-0.0461055
0.164608
-0.0318085
-6.2631
6.26673
0.0488831
-0.0460755
-0.0461615
-0.0461984
-0.0457668
0.163554
-6.27104
-0.0316975
6.27487
-0.18457
0.0495552
25.0816
-0.79206
0.280307
-6.27716
-6.26769
-6.27708
-6.26767
25.0894
-0.794076
0.272725
25.1071
-0.792857
0.263103
25.1361
-0.781689
0.250848
25.1763
-0.758138
0.236668
25.2238
-0.718904
0.221068
25.2742
-0.662777
0.203696
25.3219
-0.591276
0.185716
25.3613
-0.507783
0.167238
25.389
-0.417353
0.148586
25.4023
-0.325694
0.129864
25.4007
-0.2382
0.112175
25.3854
-0.159246
0.0950935
25.359
-0.0924053
0.0792536
25.3248
-0.0382026
0.0648331
25.2866
0.00229387
0.0520317
25.2476
0.0299332
0.0410149
25.211
0.0462041
0.0316276
0.0522446
0.0237424
25.0019
0.00217948
0.00153025
24.9994
0.0214173
0.00320962
24.9915
0.0418107
0.00521022
24.9792
0.0620644
0.00773932
24.9613
0.0866658
0.0110753
24.9349
0.119903
0.0151136
24.892
0.167151
0.0219331
24.8197
0.236294
0.0308057
6.1715
0.34478
0.043775
6.17048
6.17192
6.17059
-0.00623983
-0.0658118
6.14576
0.0880439
0.00978688
-0.00201728
-0.0196568
-1.52759
1.52231
0.0242843
0.00269335
-0.00287517
-0.0188194
-1.50369
1.49101
0.0307014
0.00371128
-0.00420092
-1.46805
0.0522092
1.47797
-0.0632046
0.00534184
-0.00637313
-1.52766
0.153497
1.5393
-0.166449
0.00774106
-0.00870102
-1.5363
0.0592805
-0.0620138
1.53829
0.00946894
-1.54795
-0.00890238
0.0578488
-0.0610229
0.00926305
1.55077
-0.00843406
0.0552429
-1.55634
1.5577
-0.0568618
0.00869516
-0.00778491
0.0521615
-1.56026
1.56068
-0.0530881
0.00829317
-0.00713064
0.0509952
-1.5609
1.56084
-0.0518488
0.00805017
-0.00655135
0.0503892
-1.55979
1.55926
-0.051185
0.00788432
-1.55257
-0.0225258
0.198891
6.15273
-0.187108
0.0348991
-1.53593
-1.55256
-1.5358
23.9147
-0.929419
0.115218
-6.09954
-5.82607
-6.09459
-5.82312
23.9808
-0.9241
0.110455
24.0523
-0.924435
0.102343
24.1321
-0.915977
0.0921619
24.2204
-0.89492
0.0817493
24.3161
-0.85752
0.0722773
24.4178
-0.802066
0.0635648
24.5224
-0.729075
0.0565662
24.6263
-0.641252
0.0509905
24.7253
-0.543027
0.0465816
24.8158
-0.439995
0.0427114
24.8938
-0.33815
0.0397364
24.9576
-0.242863
0.0365684
25.006
-0.158475
0.0332122
25.0398
-0.0878208
0.0296975
25.0606
-0.031964
0.0259359
25.0708
0.00825305
0.0220505
25.0734
0.0343426
0.0180227
0.0464226
0.0139978
25.0088
0.000980975
0.0012267
25.0094
0.0195528
0.00257661
25.0058
0.0433383
0.0041293
24.9988
0.0660779
0.00601673
24.9886
0.0927491
0.00839581
24.9747
0.128661
0.0109787
24.9547
0.179386
0.015508
24.9235
0.257019
0.0207289
6.21296
0.38558
0.02775
6.22093
6.21302
6.22105
-0.00364436
-0.106247
6.19716
0.119891
0.00581822
-0.00102789
-0.0396656
-1.54164
1.53541
0.0455344
0.00139817
-0.000748569
-0.0830521
-1.505
1.4863
0.101449
0.00106768
-2.46835e-05
0.00442231
-0.0746097
0.0748609
-0.00466109
1.28326e-05
-0.0031765
-0.227529
0.0165412
-0.0282993
0.00920589
0.233257
-1.10793
-0.00127685
0.0443324
-0.0678973
0.0046558
1.12811
-0.000141745
0.0352445
-1.18143
1.19609
-0.0495757
-0.00018864
0.00142653
0.0387415
-1.24409
1.26071
-0.0538707
-0.00291284
0.00248671
0.0420762
-1.30563
1.31953
-0.054102
-0.0043599
0.00304546
0.0465194
-1.35555
1.36738
-0.0562575
-0.00513776
-1.41452
0.0185335
0.215808
5.87258
-0.245334
-0.0340759
-1.50178
-1.41117
-1.50003
24.277
-0.833858
-0.227369
-5.93096
-6.17963
-5.94553
-6.18214
24.3003
-0.815067
-0.228121
24.3104
-0.80572
-0.2259
24.3094
-0.790747
-0.221788
24.3002
-0.766763
-0.215344
24.2872
-0.731909
-0.206424
24.2758
-0.685169
-0.195156
24.2708
-0.626563
-0.181816
24.2762
-0.557699
-0.166805
24.2945
-0.481313
-0.150601
24.3265
-0.401169
-0.133768
24.3715
-0.321391
-0.116838
24.4272
-0.245549
-0.100386
24.4901
-0.176579
-0.0848146
24.5564
-0.116936
-0.0704748
24.6225
-0.067762
-0.0575798
24.6847
-0.0294344
-0.0463626
24.7395
-0.00109097
-0.0366496
0.019098
-0.0284194
25.0081
-0.00401181
0.000958548
25.015
0.011727
0.00192707
25.0216
0.0354049
0.00299561
25.0253
0.0604045
0.00418541
25.0245
0.0910054
0.00551204
25.0287
0.121407
0.00670699
25.0406
0.163555
0.00840487
25.0686
0.224176
0.00950295
6.27584
0.316534
0.00965124
6.28807
6.27712
6.29117
-0.000858845
-0.111542
6.28322
0.103571
0.00142634
6.19779e-06
-0.0450301
-1.57778
1.57948
0.0432894
1.99533e-05
0.0011551
-0.0835195
-1.60027
1.61709
0.0668258
-0.00130318
0.00524908
-0.0273119
-1.71534
1.75463
0.061584
-0.00479304
-0.0225802
-0.0283442
-0.0231413
0.00601155
0.111633
-1.71456
1.68307
-0.0797945
-0.00642253
0.106884
-1.61158
0.00751922
1.60014
-0.0947249
-0.00828075
0.00800866
0.0751155
-1.58448
-0.00885253
1.58224
-0.0720628
0.00791089
0.0553355
-1.57897
1.57751
-0.0528761
-0.00891718
0.00759078
0.0587747
-1.57664
1.57517
-0.0560809
-0.00881002
0.00728944
0.0549739
-1.57399
1.57318
-0.0527508
-0.00869995
0.00700657
0.0531108
-1.56977
1.56983
-0.0515957
-0.00857857
-1.5689
0.0281254
0.211309
6.26733
-0.186277
-0.0436901
-1.56901
-1.56909
-1.5698
25.0079
-0.639515
-0.268629
-6.2647
-6.25726
-6.26999
-6.26307
24.9718
-0.632669
-0.267419
24.9289
-0.618615
-0.263882
24.8813
-0.602055
-0.258733
24.8303
-0.579035
-0.251202
24.7789
-0.549686
-0.240918
24.7298
-0.512637
-0.22789
24.6864
-0.468458
-0.212342
24.652
-0.418235
-0.194697
24.6287
-0.363461
-0.175547
24.618
-0.306774
-0.155596
24.6202
-0.250576
-0.135799
24.6338
-0.196838
-0.116116
24.6567
-0.14702
-0.0978181
24.6871
-0.103853
-0.0810825
24.7217
-0.0669423
-0.0661809
24.7577
-0.0370212
-0.0532162
24.7922
-0.0132176
-0.0421094
0.00449123
-0.0327831
25.0067
-0.00846009
0.000649291
25.0167
0.00120352
0.00129382
25.0308
0.0205686
0.00191769
25.0391
0.0510773
0.00245336
25.0568
0.0722878
0.00279356
25.0804
0.0968101
0.00273952
25.1187
0.124775
0.0019142
25.1848
0.158572
-0.000388769
6.33054
0.201335
-0.00550675
6.31959
6.33466
6.31804
-0.0881065
0.00133331
6.34905
0.0703309
-0.00204319
-0.0337275
0.00367632
6.42382
0.0900604
-0.00516737
-0.0318091
-0.0338655
-0.0308504
-6.38207
-0.0306315
0.00818824
6.4976
0.0850436
-0.0113794
-0.0301378
-0.0297367
-0.0325175
-6.4565
-0.0104221
0.0143026
-6.54777
6.50815
-0.0554476
-0.0205774
0.062247
-0.0119836
0.0612612
0.0355
0.020841
-6.50097
6.48181
-0.145182
-0.0300658
0.0521946
0.0344675
0.0511588
0.0592276
-6.45748
0.0258933
6.41323
-0.185975
-0.0375207
0.058175
0.0626942
0.0616149
0.0572117
0.0287459
-6.37284
6.34506
-0.181644
-0.0420297
0.0553159
0.0560171
0.0541837
0.0475232
0.0304863
-6.33124
6.32403
-0.165839
-0.0449513
0.0471422
0.0465669
0.0463684
0.0472987
0.0315627
-6.3191
6.31014
-0.165134
-0.0468917
0.0481712
0.046528
0.0474723
0.0476844
0.0320861
-6.29986
6.28904
-0.158529
-0.0480803
0.0455339
0.0471019
0.0450175
0.043745
0.0323006
-6.27938
6.26915
-0.144819
-0.0487241
0.0410492
0.0443008
0.0423529
0.162448
-6.26499
0.0324419
6.26214
-0.143042
-0.0490173
24.9923
-0.461589
-0.271409
-6.25721