/*--------------------------------*- C++ -*----------------------------------*\
| =========                 |                                                 |
| \\      /  F ield         | OpenFOAM: The Open Source CFD Toolbox           |
|  \\    /   O peration     | Version:  2306                                  |
|   \\  /    A nd           | Website:  www.openfoam.com                      |
|    \\/     M anipulation  |                                                 |
\*---------------------------------------------------------------------------*/
FoamFile
{
    version     2.0;
    format      ascii;
    arch        "LSB;label=32;scalar=64";
    class       volVectorField;
    location    "0.1";
    object      U;
}
// * * * * * * * * * * * * * * * * * * * * * * * * * * * * * * * * * * * * * //

dimensions      [0 1 -1 0 0 0 0];

internalField   nonuniform List<vector> 
111542
(
(99.9933 0.0058915 0.00230467)
(99.9708 0.0120951 0.00487118)
(99.9288 0.0185477 0.00779734)
(99.8658 0.0253679 0.0115341)
(99.7804 0.0322713 0.0164707)
(99.6704 0.0384528 0.0230753)
(99.5347 0.0420109 0.03165)
(99.3754 0.0399203 0.0427405)
(99.202 0.0274616 0.0569078)
(99.0344 -0.00191995 0.0742058)
(98.9061 -0.0543071 0.0941985)
(98.8587 -0.127415 0.115827)
(98.92 -0.203103 0.137851)
(99.0828 -0.261812 0.158334)
(99.3043 -0.292651 0.175982)
(99.5368 -0.305008 0.190765)
(99.7532 -0.307806 0.202836)
(99.946 -0.305761 0.212608)
(100.117 -0.301647 0.220135)
(100.269 -0.297013 0.225453)
(100.409 -0.29248 0.22827)
(100.54 -0.287391 0.228691)
(100.666 -0.280708 0.226985)
(100.789 -0.272169 0.222937)
(100.906 -0.261102 0.216587)
(101.017 -0.246711 0.208205)
(101.115 -0.229032 0.19772)
(101.197 -0.208245 0.185405)
(101.257 -0.18477 0.171736)
(101.292 -0.159527 0.157086)
(101.302 -0.133678 0.141814)
(101.286 -0.108451 0.126261)
(101.245 -0.08472 0.110957)
(101.184 -0.0632593 0.0962672)
(101.107 -0.0445888 0.082448)
(101.018 -0.0289644 0.0696779)
(100.922 -0.0164532 0.058019)
(100.824 -0.00662345 0.0476825)
(100.726 0.000851815 0.0386733)
(100.611 0.00639734 0.0309367)
(99.9936 0.0175449 0.00226529)
(99.9715 0.0359416 0.00473653)
(99.9301 0.0554592 0.00767598)
(99.8676 0.0763775 0.0114246)
(99.7816 0.0980247 0.0163631)
(99.6684 0.118239 0.0229515)
(99.5247 0.131989 0.0316829)
(99.3499 0.130303 0.0431427)
(99.1498 0.0983384 0.0579011)
(98.9431 0.014734 0.0762386)
(98.7716 -0.13835 0.0978913)
(98.7027 -0.355596 0.121168)
(98.7823 -0.584795 0.144901)
(98.9908 -0.753629 0.166938)
(99.2578 -0.84286 0.18553)
(99.5192 -0.882127 0.200572)
(99.7509 -0.89407 0.212716)
(99.9515 -0.892524 0.222453)
(100.126 -0.886418 0.229851)
(100.28 -0.87954 0.234814)
(100.421 -0.873321 0.237258)
(100.554 -0.867293 0.23743)
(100.683 -0.857677 0.23544)
(100.809 -0.841204 0.231155)
(100.932 -0.814092 0.224529)
(101.049 -0.773992 0.215682)
(101.153 -0.720939 0.204766)
(101.24 -0.655909 0.192046)
(101.305 -0.580758 0.177884)
(101.343 -0.49857 0.162671)
(101.353 -0.413203 0.146823)
(101.335 -0.328713 0.130763)
(101.291 -0.248563 0.114928)
(101.225 -0.175706 0.0996878)
(101.142 -0.112252 0.0853282)
(101.047 -0.059357 0.0720592)
(100.946 -0.017331 0.0600211)
(100.842 0.0145976 0.049305)
(100.74 0.0375761 0.0399241)
(100.621 0.0531602 0.0318518)
(99.9939 0.0287296 0.00216953)
(99.9729 0.0589104 0.00454852)
(99.9332 0.0916501 0.00741679)
(99.8723 0.127661 0.0110893)
(99.7864 0.166553 0.0159537)
(99.6689 0.20588 0.0225098)
(99.5121 0.239175 0.0313616)
(99.3082 0.252559 0.0432304)
(99.0543 0.219019 0.058918)
(98.7674 0.0894842 0.0791231)
(98.5065 -0.246948 0.104169)
(98.3855 -0.715817 0.132482)
(98.5026 -1.14418 0.158941)
(98.806 -1.39578 0.183145)
(99.1544 -1.50676 0.202486)
(99.4635 -1.55067 0.217253)
(99.7207 -1.55433 0.228851)
(99.9323 -1.5412 0.238013)
(100.109 -1.52434 0.244763)
(100.262 -1.50596 0.248926)
(100.402 -1.48929 0.250239)
(100.537 -1.47186 0.249526)
(100.674 -1.45533 0.247146)
(100.815 -1.4316 0.242737)
(100.958 -1.38947 0.235939)
(101.097 -1.32367 0.226683)
(101.224 -1.23385 0.215096)
(101.331 -1.1222 0.201434)
(101.412 -0.992904 0.186071)
(101.461 -0.851977 0.169477)
(101.474 -0.706501 0.152174)
(101.454 -0.563565 0.134688)
(101.402 -0.429346 0.117518)
(101.325 -0.308634 0.1011)
(101.227 -0.204547 0.0857696)
(101.116 -0.118508 0.0717601)
(100.999 -0.0503298 0.0591909)
(100.881 0.0011286 0.0481281)
(100.767 0.0382801 0.0385493)
(100.635 0.0644086 0.0304003)
(99.9945 0.0389142 0.00201985)
(99.9757 0.0801146 0.00425204)
(99.9396 0.125751 0.00695834)
(99.8831 0.177683 0.0104383)
(99.8006 0.236953 0.0150776)
(99.6823 0.302909 0.0213953)
(99.5137 0.371175 0.0300727)
(99.2736 0.428964 0.0419776)
(98.9326 0.446204 0.0582311)
(98.4249 0.246335 0.0803223)
(98.1626 0.0660737 0.0872652)
(97.8042 -0.596238 0.103375)
(97.8597 -1.40919 0.11778)
(98.3322 -1.93903 0.130033)
(98.8334 -2.10729 0.141624)
(99.2312 -2.15745 0.14874)
(99.5539 -2.14321 0.153098)
(99.8018 -2.10306 0.155837)
(99.9945 -2.06481 0.15717)
(100.157 -2.03813 0.157174)
(100.399 -2.17546 0.258918)
(100.526 -2.14151 0.257178)
(100.656 -2.11279 0.254045)
(100.807 -2.07845 0.249447)
(100.977 -2.02069 0.242933)
(101.154 -1.93033 0.234092)
(101.324 -1.80384 0.222779)
(101.475 -1.64207 0.20914)
(101.596 -1.45046 0.193543)
(101.677 -1.23838 0.17649)
(101.71 -1.01732 0.15855)
(101.696 -0.798986 0.140303)
(101.637 -0.593655 0.122292)
(101.54 -0.409316 0.105003)
(101.417 -0.25114 0.0888224)
(101.276 -0.121746 0.0740552)
(101.127 -0.0203722 0.0607356)
(100.98 0.0537938 0.0490288)
(100.84 0.104255 0.0389304)
(100.687 0.136602 0.0303617)
(99.9956 0.0473311 0.00181392)
(99.9803 0.0978883 0.00383109)
(99.9507 0.155103 0.0062744)
(99.9032 0.222563 0.00940672)
(99.8314 0.303911 0.0135807)
(99.7234 0.402739 0.0192789)
(99.5596 0.521748 0.0271652)
(99.3067 0.659504 0.0381069)
(98.8582 0.802462 0.0532504)
(98.5096 0.811338 0.0586944)
(97.6852 0.421309 0.0724642)
(96.866 -0.650328 0.0901326)
(96.9456 -2.32064 0.105162)
(98.0626 -2.94974 0.118447)
(98.7864 -3.00669 0.135001)
(99.2607 -2.98136 0.142472)
(99.623 -2.88312 0.144803)
(99.8641 -2.78085 0.144087)
(100.032 -2.7044 0.140883)
(100.159 -2.66312 0.13633)
(100.273 -2.67073 0.133109)
(100.268 -2.87741 0.228949)
(100.265 -2.88622 0.221235)
(100.315 -2.85532 0.212881)
(100.424 -2.78085 0.204142)
(100.58 -2.65933 0.194573)
(100.771 -2.48559 0.183711)
(100.98 -2.25909 0.171448)
(101.187 -1.98693 0.157953)
(101.369 -1.68299 0.143525)
(101.506 -1.36527 0.128517)
(101.587 -1.05273 0.113305)
(101.606 -0.762185 0.0982574)
(101.565 -0.506251 0.0837744)
(101.473 -0.292385 0.0701068)
(101.344 -0.122912 0.0578876)
(101.191 0.00251877 0.046533)
(101.029 0.0890273 0.036724)
(100.873 0.141968 0.0283903)
(100.705 0.166831 0.0213992)
(99.9971 0.0530318 0.00155454)
(99.987 0.110155 0.00328918)
(99.9671 0.176039 0.0053649)
(99.9344 0.256125 0.00798001)
(99.8833 0.357152 0.0114035)
(99.8032 0.488374 0.0159987)
(99.6747 0.663455 0.0222536)
(99.4606 0.902807 0.0307627)
(99.0356 1.23821 0.04215)
(98.6218 1.40376 0.0465582)
(97.6573 1.55004 0.0444746)
(95.5257 0.780931 0.0405695)
(94.2957 -3.38875 0.0554629)
(98.078 -4.72929 0.0509603)
(98.6049 -4.02261 0.072008)
(99.2151 -3.9686 0.066421)
(99.5999 -3.73957 0.0570704)
(99.7413 -3.50578 0.0458891)
(99.7584 -3.32344 0.02861)
(99.7054 -3.17418 0.00692134)
(98.5541 -3.02268 0.0451932)
(95.542 -2.8925 0.0957353)
(95.7644 -3.03769 0.0840103)
(96.0398 -3.12763 0.0733961)
(96.3451 -3.16147 0.063741)
(96.6828 -3.12988 0.0550269)
(97.0557 -3.01958 0.0473791)
(97.4592 -2.82412 0.0410347)
(97.8823 -2.54787 0.0361416)
(98.3097 -2.20548 0.0326363)
(98.7243 -1.81933 0.030241)
(99.1088 -1.41597 0.02857)
(99.4476 -1.02215 0.0272157)
(99.7297 -0.661103 0.0257943)
(99.9493 -0.350159 0.0241522)
(100.106 -0.0993181 0.0217904)
(100.205 0.0872199 0.0196386)
(100.258 0.212828 0.0169179)
(100.274 0.282805 0.0139135)
(100.265 0.301377 0.0108464)
(99.9989 0.0550752 0.00127665)
(99.9953 0.114794 0.00267484)
(99.9879 0.184614 0.00429873)
(99.9752 0.271256 0.00626153)
(99.9546 0.383679 0.00869925)
(99.9212 0.53548 0.011775)
(99.8666 0.748839 0.0156383)
(99.7759 1.0627 0.0202978)
(99.6008 1.55139 0.0253197)
(99.3301 1.95825 0.0270953)
(98.6047 2.90906 0.0230262)
(95.4403 5.95223 0.0155346)
(76.9579 -4.18426 0.0334929)
(102.576 -10.2777 0.0222527)
(55.5884 -4.07184 -0.0890318)
(77.0209 -4.71862 -0.152622)
(81.1049 -4.0001 -0.0481144)
(83.8072 -3.62021 0.0665068)
(85.7554 -3.34703 0.145603)
(87.3655 -3.18668 0.177569)
(93.983 -3.98519 0.0329053)
(96.8675 -3.78281 -0.134735)
(96.98 -3.72484 -0.145179)
(97.0623 -3.67696 -0.15591)
(97.0857 -3.61848 -0.164834)
(97.0655 -3.52646 -0.170395)
(97.0234 -3.3832 -0.171682)
(96.9799 -3.17849 -0.168541)
(96.9546 -2.91069 -0.161354)
(96.9651 -2.58674 -0.150819)
(97.0248 -2.22091 -0.137786)
(97.1399 -1.83251 -0.123164)
(97.3097 -1.44286 -0.107825)
(97.5266 -1.07243 -0.0925374)
(97.7785 -0.738255 -0.0779243)
(98.0503 -0.452556 -0.0644449)
(98.3268 -0.220859 -0.0523928)
(98.5933 -0.0456511 -0.04177)
(98.8352 0.0750464 -0.0327469)
(99.0798 0.145845 -0.0252832)
(100.001 0.0530963 0.001063)
(100.004 0.110591 0.00208138)
(100.011 0.178275 0.00320489)
(100.02 0.263041 0.0044515)
(100.034 0.374067 0.00580593)
(100.056 0.525067 0.00720533)
(100.091 0.737678 0.00844497)
(100.154 1.04815 0.00897473)
(100.301 1.5195 0.00752868)
(100.351 1.93767 0.00650041)
(100.633 2.93888 0.000653381)
(102.498 5.50312 -0.0112106)
(111.428 3.9665 -0.0513235)
(109.289 -6.88674 0.0115974)
(102.944 -6.96939 -0.0465111)
(101.256 -5.17774 -0.0613988)
(100.804 -4.20602 -0.0629523)
(100.619 -3.698 -0.0593675)
(100.501 -3.42447 -0.0527783)
(100.378 -3.28478 -0.0457612)
(100.179 -3.12152 -0.115953)
(100.015 -2.78995 -0.233986)
(99.8759 -2.71383 -0.2317)
(99.7142 -2.65053 -0.228561)
(99.5311 -2.58053 -0.224814)
(99.3307 -2.48682 -0.21975)
(99.1222 -2.3613 -0.212511)
(98.9173 -2.2017 -0.202658)
(98.7292 -2.00971 -0.190174)
(98.5717 -1.79044 -0.175377)
(98.4564 -1.55194 -0.158822)
(98.3912 -1.30423 -0.141214)
(98.3786 -1.05804 -0.123295)
(98.4165 -0.823632 -0.105757)
(98.498 -0.60964 -0.0891762)
(98.6134 -0.422366 -0.0739789)
(98.7514 -0.265337 -0.0604256)
(98.9003 -0.139541 -0.0486173)
(99.0492 -0.0428512 -0.0385124)
(99.222 0.0301178 -0.030075)
(100.003 0.0466191 0.000659232)
(100.013 0.0971074 0.00139985)
(100.032 0.156574 0.00211837)
(100.062 0.230944 0.00272032)
(100.108 0.327742 0.00308612)
(100.177 0.457204 0.00298741)
(100.283 0.633663 0.00197416)
(100.454 0.876876 -0.000791311)
(100.778 1.21162 -0.00691499)
(101.007 1.45682 -0.00955094)
(101.878 1.92386 -0.0191263)
(103.532 1.82543 -0.0372826)
(105.369 -0.227233 -0.0580681)
(104.927 -2.87533 -0.0381636)
(103.109 -3.63414 -0.0566765)
(101.871 -3.44842 -0.0717096)
(101.219 -3.1328 -0.0804482)
(100.847 -2.87827 -0.0856884)
(100.604 -2.70157 -0.0891652)
(100.411 -2.58065 -0.0918415)
(100.238 -2.48647 -0.0945837)
(99.9947 -2.20604 -0.249865)
(99.8522 -2.17317 -0.247783)
(99.6992 -2.13589 -0.244282)
(99.5401 -2.08586 -0.239231)
(99.379 -2.01525 -0.232244)
(99.2212 -1.91949 -0.223059)
(99.0733 -1.79703 -0.211669)
(98.9428 -1.64885 -0.19827)
(98.837 -1.4784 -0.183204)
(98.7617 -1.29141 -0.166913)
(98.7206 -1.09528 -0.1499)
(98.7145 -0.898243 -0.132681)
(98.7416 -0.708388 -0.115745)
(98.7978 -0.532801 -0.0995213)
(98.8773 -0.376955 -0.0843568)
(98.9731 -0.244236 -0.0704927)
(99.0785 -0.135854 -0.0580729)
(99.1867 -0.0506852 -0.0471623)
(99.318 0.0143688 -0.0377137)
(100.004 0.0361521 0.000493465)
(100.02 0.0754721 0.000986313)
(100.049 0.121594 0.00132606)
(100.096 0.178816 0.00137863)
(100.166 0.252182 0.0009499)
(100.267 0.347544 -0.000307736)
(100.417 0.471196 -0.00297487)
(100.641 0.6276 -0.00798678)
(100.984 0.812858 -0.016902)
(101.482 0.900448 -0.0318221)
(102.14 0.802404 -0.0548444)
(102.838 0.26279 -0.0863852)
(103.214 -0.751991 -0.120746)
(102.969 -1.6135 -0.150563)
(102.313 -1.94825 -0.179877)
(101.657 -1.98171 -0.203208)
(101.174 -1.92514 -0.219317)
(100.839 -1.85 -0.230214)
(100.589 -1.77886 -0.23749)
(100.386 -1.71524 -0.241811)
(100.214 -1.65537 -0.243535)
(100.062 -1.5954 -0.242797)
(99.9185 -1.54384 -0.240275)
(99.7762 -1.49052 -0.236054)
(99.6358 -1.42961 -0.229961)
(99.4993 -1.35819 -0.221921)
(99.3691 -1.2748 -0.211997)
(99.2491 -1.17929 -0.200334)
(99.1439 -1.07273 -0.187147)
(99.058 -0.957349 -0.172726)
(98.9951 -0.836247 -0.157425)
(98.9576 -0.713107 -0.141639)
(98.9464 -0.591828 -0.125776)
(98.9605 -0.476143 -0.110224)
(98.9974 -0.369243 -0.0953292)
(99.0532 -0.273649 -0.0813719)
(99.1233 -0.190924 -0.0685519)
(99.2028 -0.121593 -0.0569941)
(99.287 -0.0651726 -0.0467607)
(99.3932 -0.0202903 -0.037848)
(100.005 0.0229626 0.00035407)
(100.025 0.0477959 0.000638118)
(100.061 0.076891 0.000720948)
(100.119 0.112569 0.000428441)
(100.203 0.15772 -0.000521104)
(100.323 0.214737 -0.00251851)
(100.492 0.285032 -0.00617167)
(100.726 0.366008 -0.0123476)
(101.044 0.444479 -0.0222663)
(101.456 0.480494 -0.0373375)
(101.935 0.416729 -0.0587474)
(102.382 0.175853 -0.086654)
(102.616 -0.254475 -0.118011)
(102.502 -0.698999 -0.147964)
(102.102 -0.95996 -0.174879)
(101.62 -1.03663 -0.196534)
(101.206 -1.02562 -0.212742)
(100.888 -0.989723 -0.224291)
(100.637 -0.951717 -0.232258)
(100.429 -0.917088 -0.237199)
(100.248 -0.887114 -0.23941)
(100.086 -0.863939 -0.239131)
(99.9361 -0.845551 -0.236708)
(99.7949 -0.826984 -0.232251)
(99.6605 -0.804389 -0.225805)
(99.5335 -0.775534 -0.217464)
(99.4155 -0.738823 -0.207382)
(99.3094 -0.69325 -0.195758)
(99.2182 -0.638711 -0.182826)
(99.1448 -0.576111 -0.168867)
(99.0915 -0.507235 -0.154199)
(99.0597 -0.434547 -0.139157)
(99.0496 -0.360895 -0.124082)
(99.0604 -0.289203 -0.109295)
(99.09 -0.221846 -0.0951143)
(99.1353 -0.16107 -0.0817552)
(99.1931 -0.10833 -0.0693889)
(99.2597 -0.0642533 -0.0581451)
(99.3315 -0.0287461 -0.0480861)
(99.4235 -0.00116537 -0.0392603)
(100.006 0.00787215 0.000276253)
(100.027 0.0163284 0.000510404)
(100.067 0.026273 0.000439124)
(100.13 0.0383313 3.6314e-05)
(100.221 0.0535413 -0.00118349)
(100.349 0.0724414 -0.0035362)
(100.524 0.0950067 -0.00766674)
(100.757 0.119714 -0.0143214)
(101.057 0.141347 -0.024677)
(101.418 0.147041 -0.0395474)
(101.804 0.116354 -0.0596049)
(102.139 0.0278604 -0.0846048)
(102.314 -0.115864 -0.112689)
(102.249 -0.266536 -0.140829)
(101.965 -0.365379 -0.165856)
(101.581 -0.400914 -0.186648)
(101.213 -0.401828 -0.202918)
(100.907 -0.392409 -0.214807)
(100.659 -0.381392 -0.223167)
(100.451 -0.370506 -0.228505)
(100.269 -0.359906 -0.231147)
(100.108 -0.349559 -0.231303)
(99.9604 -0.33839 -0.229182)
(99.823 -0.325458 -0.224885)
(99.6932 -0.31002 -0.21865)
(99.5707 -0.291898 -0.210598)
(99.4569 -0.271196 -0.200861)
(99.3543 -0.248219 -0.189629)
(99.2654 -0.22349 -0.177139)
(99.1931 -0.197702 -0.163667)
(99.1395 -0.171626 -0.149517)
(99.1062 -0.146015 -0.135007)
(99.0933 -0.121564 -0.120452)
(99.1006 -0.0988724 -0.106108)
(99.1261 -0.0781555 -0.0924553)
(99.1669 -0.0597977 -0.0795925)
(99.22 -0.0439497 -0.0676631)
(99.282 -0.0305828 -0.0567959)
(99.3497 -0.019531 -0.0470787)
(99.4369 -0.0105273 -0.0385867)
(99.9934 0.00585264 0.00694284)
(99.971 0.0119617 0.0145375)
(99.9292 0.0184294 0.0234179)
(99.8669 0.0252645 0.0346805)
(99.7824 0.0321726 0.049418)
(99.6736 0.0383436 0.0689136)
(99.5395 0.0420612 0.0943303)
(99.3824 0.040337 0.127193)
(99.2114 0.0284588 0.168903)
(99.0457 7.01426e-05 0.219792)
(98.918 -0.0507992 0.278856)
(98.8691 -0.122284 0.343098)
(98.9254 -0.195981 0.407951)
(99.08 -0.252792 0.468076)
(99.2918 -0.282531 0.519733)
(99.5146 -0.294417 0.562584)
(99.7226 -0.296953 0.597364)
(99.9088 -0.29478 0.62513)
(100.075 -0.290673 0.646176)
(100.225 -0.286349 0.660569)
(100.363 -0.282081 0.667974)
(100.494 -0.277179 0.668668)
(100.62 -0.270754 0.663126)
(100.743 -0.262459 0.651109)
(100.862 -0.251694 0.632608)
(100.973 -0.237825 0.607999)
(101.073 -0.220652 0.577452)
(101.155 -0.200363 0.541736)
(101.216 -0.177494 0.502003)
(101.253 -0.152935 0.459346)
(101.265 -0.127788 0.41489)
(101.25 -0.10319 0.369757)
(101.213 -0.0801132 0.325272)
(101.154 -0.0593166 0.282459)
(101.08 -0.0412891 0.242111)
(100.994 -0.0262525 0.204798)
(100.901 -0.0141966 0.17084)
(100.805 -0.00480687 0.140638)
(100.71 0.00224624 0.114198)
(100.598 0.00742074 0.0913904)
(99.9936 0.0174114 0.00680385)
(99.9717 0.0356236 0.0142113)
(99.9306 0.0550884 0.0230406)
(99.8688 0.0759501 0.0342608)
(99.7839 0.097537 0.0489724)
(99.6724 0.117728 0.0685104)
(99.531 0.131783 0.0943703)
(99.3593 0.130894 0.128284)
(99.1628 0.100433 0.171912)
(98.9596 0.0196223 0.226201)
(98.7903 -0.128921 0.290541)
(98.7216 -0.339582 0.361617)
(98.7978 -0.56333 0.433283)
(98.9988 -0.72932 0.498668)
(99.2559 -0.816522 0.553019)
(99.5078 -0.855351 0.596773)
(99.7316 -0.867316 0.631906)
(99.9261 -0.866004 0.659784)
(100.096 -0.860431 0.680684)
(100.247 -0.854567 0.694431)
(100.386 -0.849719 0.700921)
(100.518 -0.844793 0.700945)
(100.647 -0.835899 0.694755)
(100.773 -0.819892 0.681945)
(100.895 -0.793374 0.662293)
(101.012 -0.754305 0.63607)
(101.116 -0.70251 0.603802)
(101.203 -0.638976 0.566302)
(101.268 -0.565648 0.524607)
(101.306 -0.485512 0.479868)
(101.317 -0.402271 0.43331)
(101.3 -0.319794 0.386179)
(101.258 -0.241578 0.339705)
(101.195 -0.170509 0.294948)
(101.114 -0.108623 0.252743)
(101.022 -0.0570143 0.213709)
(100.924 -0.0159461 0.178266)
(100.823 0.0152179 0.146646)
(100.724 0.0375906 0.118894)
(100.608 0.0527405 0.094915)
(99.9939 0.0284863 0.00651359)
(99.9731 0.0584332 0.0136421)
(99.9339 0.0909483 0.0222194)
(99.8739 0.126704 0.0331796)
(99.7894 0.165318 0.0476624)
(99.6741 0.204425 0.0671311)
(99.5205 0.237734 0.093395)
(99.3211 0.251649 0.128645)
(99.0728 0.219663 0.175312)
(98.7921 0.0936072 0.235524)
(98.5369 -0.235127 0.309803)
(98.4184 -0.693843 0.393552)
(98.5323 -1.11242 0.476559)
(98.8276 -1.35882 0.549705)
(99.1651 -1.46837 0.606766)
(99.4638 -1.51315 0.650516)
(99.7131 -1.51791 0.685245)
(99.9191 -1.50579 0.712908)
(100.092 -1.49001 0.733503)
(100.242 -1.47282 0.746475)
(100.38 -1.4578 0.751119)
(100.514 -1.44234 0.749875)
(100.65 -1.42736 0.743514)
(100.79 -1.40457 0.730627)
(100.931 -1.36311 0.710105)
(101.068 -1.2981 0.681947)
(101.192 -1.20944 0.646779)
(101.298 -1.09939 0.605509)
(101.377 -0.9721 0.55929)
(101.425 -0.833482 0.509502)
(101.439 -0.690462 0.45765)
(101.419 -0.550003 0.405257)
(101.369 -0.418209 0.353781)
(101.294 -0.299762 0.304489)
(101.199 -0.197726 0.258409)
(101.091 -0.11342 0.216232)
(100.976 -0.0467899 0.178353)
(100.861 0.00339102 0.145071)
(100.75 0.0395212 0.116211)
(100.622 0.0648495 0.0915996)
(99.9945 0.0385622 0.00605502)
(99.976 0.0794076 0.0127287)
(99.9405 0.124631 0.0208001)
(99.885 0.176042 0.031166)
(99.8042 0.234653 0.0449769)
(99.6886 0.299826 0.0637801)
(99.524 0.36725 0.0896548)
(99.2897 0.424309 0.125317)
(98.9563 0.441258 0.174307)
(98.4591 0.244369 0.241075)
(98.1969 0.0609658 0.274684)
(97.8458 -0.603903 0.352269)
(97.9059 -1.41183 0.433805)
(98.3768 -1.94193 0.507501)
(98.8679 -2.10906 0.562499)
(99.2556 -2.16316 0.600094)
(99.5711 -2.15429 0.627838)
(99.814 -2.11885 0.649937)
(100.003 -2.08453 0.667019)
(100.163 -2.0608 0.678748)
(100.392 -2.17871 0.807143)
(100.515 -2.14521 0.804662)
(100.641 -2.11806 0.796574)
(100.788 -2.08554 0.782026)
(100.953 -2.02887 0.759917)
(101.125 -1.93894 0.729934)
(101.29 -1.81265 0.692481)
(101.438 -1.65105 0.648451)
(101.556 -1.45966 0.599097)
(101.635 -1.2478 0.545915)
(101.669 -1.02691 0.49051)
(101.655 -0.808629 0.434494)
(101.598 -0.603262 0.379392)
(101.505 -0.418719 0.326532)
(101.384 -0.260289 0.277019)
(101.247 -0.130205 0.231546)
(101.102 -0.0284961 0.190561)
(100.958 0.0462036 0.154248)
(100.822 0.0972975 0.122758)
(100.673 0.130272 0.0958415)
(99.9956 0.0468703 0.00542589)
(99.9806 0.0969382 0.0114367)
(99.9517 0.153536 0.0187044)
(99.9053 0.220153 0.0280229)
(99.8352 0.300325 0.0404573)
(99.7301 0.397516 0.0574873)
(99.5705 0.51427 0.0811936)
(99.3238 0.648933 0.114416)
(98.8846 0.787498 0.160982)
(98.5379 0.790774 0.187351)
(97.7227 0.3979 0.254378)
(96.9163 -0.673637 0.339935)
(97.0103 -2.32845 0.436927)
(98.1295 -2.9413 0.524076)
(98.8379 -2.97636 0.580881)
(99.2938 -2.95908 0.606835)
(99.6465 -2.87717 0.620846)
(99.8824 -2.79316 0.631817)
(100.047 -2.73549 0.640466)
(100.174 -2.71121 0.646271)
(100.285 -2.72806 0.648257)
(100.242 -2.96524 0.757769)
(100.222 -2.96889 0.742125)
(100.259 -2.93384 0.716742)
(100.36 -2.85565 0.684761)
(100.509 -2.73058 0.647512)
(100.695 -2.55336 0.605637)
(100.902 -2.3233 0.559964)
(101.108 -2.04735 0.511486)
(101.291 -1.73924 0.461211)
(101.433 -1.41696 0.410121)
(101.519 -1.09948 0.359221)
(101.545 -0.803749 0.309568)
(101.512 -0.542629 0.26228)
(101.428 -0.323658 0.218287)
(101.307 -0.149758 0.178631)
(101.161 -0.0196752 0.143011)
(101.005 0.0707313 0.112516)
(100.854 0.126909 0.0866439)
(100.69 0.154411 0.0649921)
(99.997 0.0524984 0.00464171)
(99.9873 0.10901 0.00977547)
(99.968 0.174087 0.015923)
(99.9363 0.253023 0.0236925)
(99.8869 0.35235 0.0339125)
(99.8092 0.48103 0.0477384)
(99.6842 0.652254 0.0667743)
(99.475 0.885658 0.0931896)
(99.0566 1.21158 0.129658)
(98.6451 1.37241 0.151069)
(97.686 1.5098 0.179309)
(95.5722 0.724598 0.227527)
(94.379 -3.44059 0.319233)
(98.2227 -4.70848 0.454458)
(98.7381 -3.813 0.606276)
(99.2891 -3.73793 0.610296)
(99.6655 -3.54339 0.55901)
(99.7981 -3.38363 0.508349)
(99.7916 -3.29924 0.471188)
(99.6896 -3.24852 0.446773)
(98.4985 -3.12252 0.435933)
(95.4126 -3.16183 0.296552)
(95.6571 -3.31632 0.286015)
(95.9488 -3.39694 0.265464)
(96.265 -3.41199 0.240979)
(96.6081 -3.35797 0.216302)
(96.9821 -3.22491 0.193482)
(97.3838 -3.00813 0.173798)
(97.8039 -2.71268 0.157811)
(98.2286 -2.35317 0.14534)
(98.6419 -1.95161 0.135628)
(99.0271 -1.53406 0.127602)
(99.3691 -1.12684 0.120107)
(99.6567 -0.75304 0.112131)
(99.8836 -0.429752 0.103061)
(100.049 -0.16745 0.0925148)
(100.158 0.030294 0.0815243)
(100.22 0.166211 0.0694779)
(100.244 0.245344 0.0568527)
(100.242 0.271947 0.0442875)
(99.9989 0.0545691 0.00373585)
(99.9955 0.113579 0.00787163)
(99.9886 0.182456 0.0126638)
(99.9768 0.267741 0.018473)
(99.9573 0.37812 0.025755)
(99.9254 0.526778 0.0350806)
(99.8726 0.735225 0.0470982)
(99.7834 1.04134 0.0622794)
(99.6075 1.51764 0.0802357)
(99.3357 1.91705 0.0896948)
(98.6042 2.85134 0.0941997)
(95.425 5.84095 0.066723)
(77.0895 -4.36583 0.0112301)
(57.2641 -5.50115 1.5256)
(70.7677 -3.39811 0.580649)
(75.5413 -2.7256 0.196095)
(80.0258 -2.72442 -0.0604195)
(83.8778 -2.92361 -0.193319)
(87.0043 -3.19041 -0.254089)
(93.5139 -3.99066 -0.399045)
(96.9761 -3.98254 -0.603796)
(97.1119 -3.9338 -0.613693)
(97.2046 -3.8813 -0.615255)
(97.2289 -3.81092 -0.6094)
(97.204 -3.70376 -0.595909)
(97.1542 -3.54448 -0.574603)
(97.1011 -3.32428 -0.545902)
(97.065 -3.04228 -0.5107)
(97.0641 -2.70556 -0.470223)
(97.1119 -2.32826 -0.425945)
(97.2152 -1.92934 -0.379494)
(97.3734 -1.52989 -0.332505)
(97.5793 -1.15007 -0.286523)
(97.821 -0.806885 -0.242841)
(98.0836 -0.512142 -0.202448)
(98.3523 -0.272365 -0.165997)
(98.6124 -0.0891814 -0.133906)
(98.8496 0.0392733 -0.106134)
(99.0905 0.117317 -0.0826571)
(100.001 0.0524612 0.0029645)
(100.004 0.109308 0.0059506)
(100.011 0.176093 0.0092473)
(100.021 0.259511 0.0129172)
(100.036 0.368484 0.0169666)
(100.058 0.516321 0.0212975)
(100.093 0.724086 0.0254618)
(100.154 1.02721 0.0281599)
(100.295 1.48766 0.0262005)
(100.34 1.89977 0.0222799)
(100.606 2.8898 0.00268257)
(102.416 5.44498 -0.0799418)
(111.163 4.16548 -0.331709)
(109.178 -6.61313 -0.407686)
(102.865 -6.80771 -0.512878)
(101.2 -4.99697 -0.5475)
(100.764 -4.04655 -0.538647)
(100.594 -3.58766 -0.519416)
(100.487 -3.37174 -0.50272)
(100.371 -3.28367 -0.49146)
(100.175 -3.17699 -0.55956)
(100.027 -2.86378 -0.738613)
(99.8968 -2.78207 -0.73858)
(99.742 -2.71292 -0.730496)
(99.5639 -2.6371 -0.71647)
(99.3682 -2.53771 -0.696043)
(99.1642 -2.4068 -0.668258)
(98.9631 -2.24222 -0.63286)
(98.778 -2.04572 -0.590357)
(98.6222 -1.82246 -0.541881)
(98.5073 -1.5805 -0.489078)
(98.441 -1.3298 -0.433908)
(98.4263 -1.08104 -0.378417)
(98.4609 -0.844366 -0.324481)
(98.5385 -0.62833 -0.273698)
(98.6496 -0.439142 -0.22724)
(98.783 -0.280286 -0.185824)
(98.9275 -0.152831 -0.149743)
(99.0723 -0.0545507 -0.118812)
(99.2404 0.0199988 -0.092902)
(100.003 0.0460383 0.00193407)
(100.013 0.0960034 0.00399711)
(100.032 0.154687 0.00598587)
(100.063 0.227879 0.00767875)
(100.109 0.322904 0.00873724)
(100.178 0.449693 0.00853007)
(100.282 0.622227 0.00583738)
(100.45 0.859842 -0.00164654)
(100.766 1.1869 -0.0183193)
(100.992 1.42835 -0.0307151)
(101.844 1.89079 -0.0754321)
(103.469 1.80015 -0.162359)
(105.28 -0.212382 -0.28211)
(104.842 -2.83442 -0.397493)
(103.055 -3.60697 -0.485947)
(101.836 -3.4293 -0.543647)
(101.198 -3.12585 -0.579153)
(100.838 -2.88329 -0.60136)
(100.601 -2.71651 -0.615719)
(100.412 -2.60334 -0.624906)
(100.242 -2.51232 -0.629698)
(100.013 -2.21284 -0.779643)
(99.8731 -2.17931 -0.772013)
(99.7227 -2.1417 -0.759327)
(99.5663 -2.09073 -0.741027)
(99.4083 -2.01871 -0.71649)
(99.2536 -1.9216 -0.685556)
(99.1084 -1.79822 -0.648554)
(98.9803 -1.64967 -0.606191)
(98.8761 -1.47941 -0.559461)
(98.8018 -1.29307 -0.509593)
(98.7607 -1.09791 -0.457951)
(98.7537 -0.90196 -0.405941)
(98.7792 -0.713165 -0.354884)
(98.8332 -0.538459 -0.30596)
(98.9098 -0.383228 -0.260133)
(99.0026 -0.250826 -0.218099)
(99.1047 -0.142472 -0.180287)
(99.2097 -0.0571083 -0.146867)
(99.337 0.00834703 -0.117759)
(100.004 0.0358385 0.00131067)
(100.02 0.0746947 0.00258253)
(100.05 0.120185 0.00345459)
(100.097 0.176545 0.00352812)
(100.166 0.248585 0.00220376)
(100.268 0.342023 -0.00149631)
(100.416 0.462982 -0.00918989)
(100.636 0.615796 -0.023538)
(100.972 0.79662 -0.0489387)
(101.46 0.883304 -0.0918138)
(102.102 0.79016 -0.158677)
(102.785 0.26603 -0.252581)
(103.152 -0.722265 -0.362684)
(102.913 -1.57038 -0.47598)
(102.275 -1.90396 -0.569843)
(101.639 -1.93897 -0.637039)
(101.174 -1.88521 -0.682306)
(100.851 -1.81333 -0.7125)
(100.609 -1.74513 -0.732042)
(100.411 -1.68394 -0.74281)
(100.242 -1.62594 -0.745641)
(100.093 -1.56735 -0.740847)
(99.9505 -1.51688 -0.731419)
(99.8091 -1.46425 -0.717224)
(99.6698 -1.40368 -0.69739)
(99.5343 -1.33257 -0.671772)
(99.4051 -1.2498 -0.640748)
(99.286 -1.15532 -0.604865)
(99.1814 -1.05024 -0.564788)
(99.0957 -0.93673 -0.521337)
(99.0326 -0.817813 -0.475491)
(98.9945 -0.697064 -0.428334)
(98.9821 -0.578257 -0.380991)
(98.9945 -0.465025 -0.334538)
(99.0292 -0.360465 -0.289951)
(99.0825 -0.267008 -0.248053)
(99.1499 -0.186144 -0.20944)
(99.2265 -0.118381 -0.174502)
(99.308 -0.0632158 -0.143424)
(99.4106 -0.0193679 -0.116219)
(100.005 0.0227438 0.000857008)
(100.025 0.047331 0.00153476)
(100.062 0.0760464 0.00163768)
(100.12 0.111287 0.000645648)
(100.204 0.155632 -0.00225304)
(100.324 0.211556 -0.00816587)
(100.491 0.280431 -0.0188131)
(100.722 0.359766 -0.0367227)
(101.035 0.436637 -0.0654077)
(101.438 0.472561 -0.109126)
(101.907 0.411666 -0.171666)
(102.344 0.177724 -0.253735)
(102.577 -0.243442 -0.348879)
(102.47 -0.678844 -0.444454)
(102.083 -0.933296 -0.527923)
(101.618 -1.00805 -0.592085)
(101.219 -0.997554 -0.638072)
(100.913 -0.963073 -0.670177)
(100.671 -0.926622 -0.691763)
(100.468 -0.893523 -0.704496)
(100.29 -0.865006 -0.70925)
(100.13 -0.843239 -0.706787)
(99.981 -0.825747 -0.698359)
(99.8396 -0.807592 -0.684287)
(99.7046 -0.785348 -0.664552)
(99.5767 -0.756966 -0.639394)
(99.4579 -0.720931 -0.609312)
(99.3508 -0.676277 -0.574927)
(99.2585 -0.622926 -0.536947)
(99.184 -0.561769 -0.496169)
(99.1295 -0.49454 -0.453472)
(99.0962 -0.423628 -0.409783)
(99.0844 -0.35177 -0.366027)
(99.0932 -0.281763 -0.323084)
(99.1205 -0.2161 -0.281788)
(99.1635 -0.156856 -0.242786)
(99.2187 -0.105405 -0.206578)
(99.2827 -0.0623803 -0.17354)
(99.3519 -0.0277087 -0.143878)
(99.4407 -0.000830697 -0.117653)
(100.006 0.00779375 0.000644177)
(100.027 0.016202 0.00108942)
(100.068 0.025989 0.000781558)
(100.132 0.0379283 -0.000673238)
(100.223 0.0528207 -0.00436698)
(100.35 0.0713344 -0.011286)
(100.524 0.0934521 -0.0231626)
(100.755 0.117704 -0.0423568)
(101.051 0.138903 -0.0720264)
(101.406 0.14479 -0.115068)
(101.786 0.115482 -0.173733)
(102.116 0.0300318 -0.247546)
(102.291 -0.109506 -0.331448)
(102.234 -0.256427 -0.416192)
(101.963 -0.352522 -0.492126)
(101.594 -0.387319 -0.553564)
(101.24 -0.388484 -0.59956)
(100.946 -0.379511 -0.632482)
(100.705 -0.368983 -0.655098)
(100.501 -0.358583 -0.668989)
(100.322 -0.348496 -0.67508)
(100.162 -0.338663 -0.67407)
(100.014 -0.327874 -0.666703)
(99.8748 -0.315189 -0.653485)
(99.7431 -0.300062 -0.634865)
(99.6184 -0.282345 -0.611112)
(99.5026 -0.26212 -0.582618)
(99.398 -0.239689 -0.549957)
(99.3073 -0.215576 -0.513822)
(99.2331 -0.190466 -0.474991)
(99.1777 -0.165112 -0.43431)
(99.1425 -0.140246 -0.392661)
(99.1277 -0.116525 -0.35092)
(99.1328 -0.0944808 -0.309873)
(99.1558 -0.0744809 -0.270525)
(99.1942 -0.0567966 -0.233363)
(99.2448 -0.0415416 -0.198829)
(99.3043 -0.0286867 -0.167287)
(99.3693 -0.0180914 -0.138958)
(99.4536 -0.00951769 -0.113962)
(99.9937 0.00575331 0.0113972)
(99.9721 0.0117709 0.0237212)
(99.9319 0.0181751 0.0383142)
(99.872 0.0249568 0.0566988)
(99.7911 0.0318394 0.0805698)
(99.687 0.0380756 0.111953)
(99.5591 0.0420858 0.153039)
(99.4096 0.0410556 0.206259)
(99.247 0.0305338 0.273803)
(99.0892 0.00453926 0.356628)
(98.9671 -0.0427161 0.453372)
(98.9184 -0.109147 0.559259)
(98.9681 -0.17817 0.666094)
(99.1101 -0.231471 0.765267)
(99.3061 -0.259385 0.850325)
(99.5133 -0.270461 0.920267)
(99.7076 -0.272489 0.976599)
(99.8825 -0.269945 1.02103)
(100.039 -0.265665 1.05433)
(100.182 -0.261487 1.07673)
(100.314 -0.257568 1.08818)
(100.441 -0.252932 1.089)
(100.564 -0.246775 1.0796)
(100.684 -0.238971 1.06006)
(100.8 -0.229064 1.03026)
(100.908 -0.216365 0.990298)
(101.005 -0.200534 0.940732)
(101.086 -0.181706 0.882723)
(101.146 -0.160406 0.817884)
(101.183 -0.137478 0.74806)
(101.196 -0.113971 0.675232)
(101.184 -0.0909757 0.60143)
(101.149 -0.0694504 0.528627)
(101.095 -0.0501279 0.458524)
(101.025 -0.033481 0.392513)
(100.944 -0.0197128 0.331583)
(100.857 -0.00879335 0.276388)
(100.766 -0.000456863 0.227293)
(100.677 0.00564948 0.184311)
(100.571 0.00999456 0.147284)
(99.9938 0.0171183 0.0111462)