/*--------------------------------*- C++ -*----------------------------------*\
| =========                 |                                                 |
| \\      /  F ield         | OpenFOAM: The Open Source CFD Toolbox           |
|  \\    /   O peration     | Version:  2306                                  |
|   \\  /    A nd           | Website:  www.openfoam.com                      |
|    \\/     M anipulation  |                                                 |
\*---------------------------------------------------------------------------*/
FoamFile
{
    version     2.0;
    format      ascii;
    arch        "LSB;label=32;scalar=64";
    class       volVectorField;
    location    "0.5";
    object      Force;
}
// * * * * * * * * * * * * * * * * * * * * * * * * * * * * * * * * * * * * * //

dimensions      [1 1 -2 0 0 0 0];

internalField   uniform (0 0 0);

boundaryField
{
    walls
    {
        type            calculated;
        value           uniform (0 0 0);
    }
    inlet
    {
        type            calculated;
        value           uniform (0 0 0);
    }
    outlet
    {
        type            calculated;
        value           uniform (0 0 0);
    }
    NASA
    {
        type            calculated;
        value           nonuniform List<vector> 
14179
(
(-0.0147028 -0.135175 1.12252e-05)
(-0.0131597 -0.108748 8.22047e-06)
(-0.0659373 -0.533106 0.00109365)
(-0.100566 -0.808171 0.0041196)
(-0.0662195 -0.535872 0.000570934)
(-0.109772 -0.882011 0.00455357)
(0.199251 0.865017 -0.000450861)
(0.101063 0.507343 -6.74133e-05)
(0.640569 3.14059 0.0030256)
(0.106284 0.533591 -7.10726e-05)
(-0.000646315 -0.00842674 5.17098e-06)
(-0.017895 -0.146362 0.000730157)
(0.130545 0.651607 -0.00306231)
(-0.0356442 -0.323705 0.00173205)
(0.0618883 0.308565 -0.00141459)
(1.37668 0.928685 0.00283507)
(1.38837 0.920247 -0.000515924)
(0.0222039 0.124516 -7.13624e-05)
(0.145345 0.862495 -0.000121952)
(1.26102 0.835665 -0.00452292)
(-0.0173183 -0.242238 -3.65525e-07)
(-0.0215386 -0.200206 -0.00010394)
(-0.0197978 -0.274754 -0.000212604)
(-0.0087961 -0.0640341 4.92698e-06)
(-0.0133364 -0.110258 3.09483e-05)
(-0.00950022 -0.0691628 2.49789e-05)
(-0.0129088 -0.106206 0.00052135)
(-0.0151812 -0.108674 0.000551161)
(-0.0132588 -0.12096 0.000592712)
(-0.0155123 -0.212552 0.00408597)
(0.0468463 0.204588 -4.04089e-06)
(0.0526731 0.248376 -8.56284e-06)
(0.0566483 0.267113 -0.000110627)
(0.0462026 0.201244 -2.61334e-05)
(0.0599182 0.219823 -5.81771e-06)
(0.0573338 0.210144 -2.21126e-05)
(0.0310332 0.112601 -2.71096e-06)
(0.0299804 0.108682 -1.44839e-05)
(-0.0022256 -0.0105678 0.000167424)
(-0.0128254 -0.0623853 0.000777544)
(0.16977 0.619702 -0.00239603)
(0.0992304 0.3576 -0.000970775)
(0.110802 0.556153 -0.000176595)
(-0.00609025 -0.042787 4.70993e-06)
(-0.00553395 -0.0388741 2.78406e-06)
(0.172832 0.86798 -0.000280751)
(-0.00988615 -0.0683661 0.000378547)
(0.0970138 0.48406 -0.00152997)
(0.0901792 0.450395 -0.00155708)
(0.107614 0.439696 -0.000400129)
(0.0843537 0.313583 -2.7276e-05)
(0.0839995 0.312278 -7.53342e-05)
(-0.0648154 1.58096 -0.00027537)
(1.38631 0.921771 -0.000783143)
(-0.0649637 1.59649 7.83954e-05)
(-0.00277714 1.35944 -0.000267818)
(0.0683969 1.03417 1.89471e-06)
(0.0654633 0.987248 -0.000263064)
(-0.00274555 1.36638 -2.81797e-05)
(0.0877601 0.344993 -2.92114e-05)
(0.148727 0.881933 -0.000232718)
(0.0072562 0.0263539 -1.08228e-05)
(-0.0227769 0.567502 -0.0018474)
(0.911359 0.6219 0.0744184)
(-0.000677724 0.533059 -0.00202767)
(0.0269451 0.408024 -0.00144065)
(0.127192 0.743917 0.00537738)
(-0.0148305 -0.148348 1.46485e-05)
(-0.0146433 -0.134715 2.21938e-05)
(-0.0988487 -0.794493 0.00404446)
(-0.0116151 -0.0920797 7.7292e-06)
(-0.0131366 -0.108566 1.7609e-05)
(1.30907 0.866493 -0.00533286)
(1.2607 0.83474 -0.00492521)
(0.346429 2.05269 -0.0113612)
(0.261069 1.54126 -0.00787772)
(-0.111358 -0.895924 0.00315434)
(-0.0566576 -0.35235 0.0018588)
(-0.0558916 -0.349966 0.00189594)
(-0.0428604 -0.251244 0.00134899)
(0.156874 0.676115 -0.00363046)
(0.176256 0.761566 -0.00400406)
(0.761764 1.30791 -5.24704e-05)
(0.762154 1.30664 -0.000322282)
(0.103024 0.517162 -9.7936e-05)
(0.0923578 0.443736 -4.71173e-05)
(-0.000379999 -0.00383496 -4.02892e-07)
(0.00135351 0.00672403 -4.19886e-07)
(0.00138754 0.00691817 -2.45331e-06)
(-0.00037273 -0.00378231 3.812e-07)
(0.109033 0.547473 -8.60444e-05)
(0.0982775 0.506889 -5.39349e-05)
(-0.020104 -0.164152 0.000879056)
(-0.0135601 -0.0971294 0.00054147)
(-0.0204338 -0.14578 0.000778527)
(-0.0123911 -0.0854009 0.000505477)
(-0.0182157 -0.124833 0.000623011)
(0.0854249 0.425982 -0.00226395)
(-0.0200708 -0.18241 0.000959613)
(-0.0247382 -0.339157 0.00190842)
(-0.020848 -0.292315 0.00093785)
(0.0801173 0.399891 -0.00209693)
(1.37392 0.922756 -0.00266076)
(0.0886898 0.522981 -8.6833e-05)
(0.093651 0.523743 -3.36032e-05)
(0.0962803 0.538366 -8.66348e-05)
(0.187747 1.30718 -0.000215449)
(0.0944417 0.560324 -9.4035e-05)
(0.145131 0.861193 -0.000139665)
(0.0259952 0.0245798 2.06789e-05)
(0.348041 -0.12826 0.00348922)
(0.370303 -0.146817 0.00173962)
(0.0183415 0.0176497 -4.77432e-05)
(-0.0069313 -0.0296644 0.000226735)
(0.0211027 0.0777381 -0.000355256)
(0.00182618 0.00610467 3.68126e-05)
(0.0211393 0.0850235 -0.000285676)
(-0.00975272 -0.0434784 0.000246091)
(-0.00205687 -0.0113867 0.000139643)
(0.00397529 0.0165164 -3.21174e-05)
(-0.0181872 -0.0878874 0.000463947)
(-0.000990634 0.730914 -0.00357215)
(0.0407411 0.607434 -0.00306392)
(-0.00145672 0.980257 -0.00486283)
(0.0317487 0.479649 -0.00272973)
(-0.0345592 0.866338 -0.00442318)
(1.09017 0.733178 -0.00424233)
(-0.0468469 1.16177 -0.00571646)
(0.10934 0.646683 -0.00430165)
(0.155942 0.610403 -0.00341612)
(0.117152 0.457938 -0.00233418)
(0.108013 0.393956 -0.00198926)
(0.15281 0.55806 -0.00281626)
(0.0629612 0.227052 -0.00114461)
(0.0858158 0.31001 -0.00163648)
(-0.0133746 -0.15065 6.33571e-06)
(-0.017201 -0.240264 3.25879e-05)
(-0.0106483 -0.0819895 7.20548e-06)
(-0.0086436 -0.0629291 9.30952e-06)
(0.000645241 0.00197403 0.530892)
(-0.012962 -0.101878 0.000507185)
(0.000615157 0.00188548 0.504836)
(-0.0144229 -0.109777 0.000557462)
(0.000935372 0.00228415 0.574311)
(-0.0129778 -0.129404 0.000698797)
(0.00118902 0.0027272 0.575465)
(-0.0120824 -0.138977 0.00153558)
(0.0524683 0.247395 -5.18995e-05)
(0.0391317 0.177972 -1.65493e-05)
(0.0394484 0.179436 -3.8609e-05)
(0.0464248 0.202186 -3.24882e-05)
(0.0456898 0.201234 -1.86912e-05)
(0.0459279 0.202305 -4.00384e-05)
(0.0589872 0.216341 -1.67825e-05)
(0.0239986 0.119355 -2.36073e-05)
(0.0214435 0.108788 -2.16954e-05)
(0.0311041 0.11283 -6.07859e-06)
(0.0274972 0.096747 -3.09004e-06)
(-0.00659223 -0.030126 0.000299995)
(-0.0055226 -0.0262728 0.000317255)
(0.000476241 0.00153663 0.318724)
(0.000473884 0.00148356 0.311796)
(0.00046251 0.00145377 0.307761)
(0.000332684 0.00145313 0.353587)
(0.0935587 0.318662 -0.000611885)
(0.159834 0.558622 0.00213372)
(-1.10004e-06 0.00147398 0.333345)
(0.000386402 0.00082312 0.302718)
(0.000121958 0.000510553 0.106513)
(0.0818491 0.287181 -0.000760489)
(0.284607 0.661202 -1.53483e-05)
(0.16741 0.590215 4.31423e-05)
(0.165724 0.584321 -6.59259e-05)
(0.0865575 0.40428 -3.21356e-05)
(0.0885035 0.413452 -6.93224e-05)
(0.143573 0.685872 -6.28407e-05)
(0.0852 0.379447 -5.32501e-05)
(0.0888509 0.4033 -2.67211e-05)
(0.0913577 0.414643 -6.32409e-05)
(0.0836367 0.372571 -1.79606e-05)
(-0.00491908 -0.034538 4.33885e-06)
(-0.00601474 -0.0422608 5.11972e-06)
(0.149206 0.790365 -5.97377e-05)
(0.262477 0.452611 0.00960502)
(0.00121406 0.00491993 0.856575)
(0.000347176 0.00260993 0.409254)
(0.0479753 0.139492 -0.000317503)
(-0.0118443 -0.0738142 0.000454377)
(-0.0118393 -0.0746755 0.000601063)
(0.00108133 0.0030697 0.674692)
(0.000387587 0.000887709 0.309313)
(0.0961087 0.492974 -0.000576885)
(0.000597151 0.000965077 0.373096)
(0.13981 0.734382 0.00292421)
(0.00061676 0.00177852 0.34558)
(0.000466025 0.00154299 0.32692)
(-0.000252801 0.00129878 0.349836)
(7.0059e-05 0.000647417 0.111989)
(0.0804237 0.383922 -0.0013661)
(0.103056 0.478494 -0.000633768)
(0.000497704 0.000614774 0.204858)
(9.78085e-05 0.000731198 0.107222)
(0.169467 0.711837 -0.000491038)
(0.0843777 0.313673 -4.32876e-05)
(0.0803703 0.307663 -3.31586e-05)
(0.0958627 0.390803 -6.39661e-05)
(0.0672704 0.270949 -1.90652e-05)
(-0.886911 2.83533 -0.021753)
(-0.0657234 1.60967 -0.000111679)
(-0.197778 1.8484 0.000797414)
(0.065989 0.993922 -0.000133428)
(0.0517104 1.10536 -7.39343e-05)
(-0.00279648 1.39128 -0.000100283)
(0.0317746 1.19212 -4.63306e-05)
(0.102413 1.12402 -0.000121913)
(0.131749 1.70076 -0.000131123)
(0.126644 1.63349 -0.000185141)
(0.102161 1.12156 -0.00010068)
(0.11774 1.20279 -0.000158063)
(0.125792 1.17048 -4.58465e-05)
(0.126615 1.17845 -0.000191448)
(0.115675 1.18125 -4.72227e-05)
(0.0651531 0.270025 -2.82099e-05)
(0.0572925 0.227385 -2.31643e-05)
(0.0878197 0.345147 -2.88864e-05)
(0.115366 0.781652 -0.000153391)
(0.103629 0.652793 -0.000108333)
(-0.000228633 0.0018206 0.563442)
(0.00107148 0.004359 0.886823)
(0.000885279 0.00262991 0.00013081)
(0.000537554 0.00440723 0.733687)
(0.00181416 0.00607241 0.000115253)
(0.000601483 0.0108051 0.273762)
(-0.0602669 0.578655 -0.00243023)
(0.00758952 0.000748652 1.73995)
(0.000432247 0.00119516 0.302609)
(0.0141595 0.515565 -0.00202522)
(0.000814222 0.000625326 0.243908)
(0.023155 0.483764 -0.00178362)
(0.0610864 0.525113 -0.00202685)
(0.0608337 0.515467 -0.00197453)
(0.000419768 0.000965653 0.243281)
(0.000451292 0.00105779 0.26766)
(0.0572699 0.527879 -0.00192474)
(0.0520534 0.524586 -0.00161962)
(0.0471123 0.514941 -0.000282963)
(2.32125e-05 3.5585e-05 0.223125)
(-0.0190426 -0.104469 0.00142826)
(0.00029948 0.00185667 0.500766)
(0.0914714 0.508381 -0.00156453)
(0.000466538 0.00149766 0.317764)
(0.000468932 0.00150437 0.319057)
(0.485822 -0.193587 -0.00367429)
(0.225972 0.213623 0.00165783)
(0.000191702 0.00027919 0.0787094)
(-0.0515539 -0.506688 0.00178855)
(-0.0669549 -0.540819 0.00191955)
(-0.0540043 -0.530188 0.00234957)
(-0.0672261 -0.542967 0.00196671)
(-0.0721442 -0.581933 0.00259318)
(-0.0577344 -0.566207 0.00276491)
(-0.0805883 -0.649059 0.00318701)
(0.179004 0.774247 -0.00407121)
(0.447953 2.19231 -0.0112958)
(0.182563 0.790041 -0.00414113)
(0.427342 2.09089 -0.0108055)
(-0.0661513 -0.535195 0.000640606)
(-0.0420912 -0.262341 0.00136237)
(-0.104988 -0.843397 0.00431457)
(-0.0479796 -0.29858 0.00155531)
(1.39112 0.92218 -0.00124712)
(1.38884 0.920559 -0.000578096)
(0.204215 0.886427 -0.000567549)
(0.611551 3.00023 -0.00314831)
(0.575696 2.82374 -0.001881)
(0.239992 1.04151 -0.00101432)
(0.391497 2.32087 -0.00160137)
(0.436802 2.58956 -0.0028474)
(-0.000885266 -0.00878813 1.03032e-05)
(-0.000635048 -0.00785444 5.72293e-06)
(0.022373 0.126592 -0.000141002)
(0.0226259 0.127495 -9.04557e-05)
(0.0481836 0.208909 -0.000963608)
(0.0354027 0.160642 -0.000738113)
(0.0583717 0.253887 -0.00121233)
(0.0271012 0.122059 -0.000529271)
(-0.108955 -0.876052 0.00451518)
(-0.0693569 -0.503571 0.00260758)
(0.0163834 0.0766157 -0.0002718)
(-0.011447 -0.0633138 0.000387918)
(0.0636127 0.231868 -0.00123888)
(0.0715653 0.260822 -0.00137034)
(0.0345636 0.124532 -0.000667478)
(0.0399842 0.144056 -0.000757582)
(0.262469 1.18735 -0.000663635)
(0.169734 0.736398 -0.000229759)
(0.301063 1.42329 -0.000836388)
(0.154693 0.776272 -0.000341076)
(-0.0190917 -0.160644 0.000209477)
(-0.043515 -0.322467 0.000422432)
(-0.00708247 -0.0517402 -2.79122e-06)
(0.000208973 -0.00383977 2.72903e-06)
(-0.0188011 -0.128797 7.0036e-05)
(-0.0250132 -0.174799 0.000129068)
(0.0966434 0.395185 6.6423e-05)
(0.0836728 0.311118 -0.000172331)
(0.0838517 0.311742 -0.000103549)
(0.108035 0.443293 -0.000833989)
(0.164899 0.724401 -0.000361565)
(0.141472 0.652039 -0.000227941)
(0.172189 0.757066 -0.000414974)
(0.181133 0.844764 -0.000257921)
(-0.00273859 1.30044 -0.000301204)
(0.0610121 0.922333 -0.000488043)
(-0.00242037 1.07112 -0.000537003)
(0.0653512 0.987605 -0.000267406)
(-0.0628811 1.5343 -0.000319404)
(1.38743 0.920857 -0.000492882)
(-0.0545233 1.32955 -0.000631931)
(0.497919 4.27082 -0.00258653)
(0.095021 0.373316 -7.69109e-05)
(0.0835042 0.328077 -0.000172003)
(0.0625766 0.229462 -0.000115425)
(0.0589841 0.216144 -3.05548e-05)
(0.0566467 0.296969 -0.000207438)
(0.183452 0.905507 -0.00138241)
(0.0214217 0.119266 -9.52834e-05)
(0.0470122 0.252252 -0.000143903)
(0.769441 4.81464 0.000939274)
(0.388609 2.59641 -6.78216e-05)
(0.0318954 0.115666 -5.9642e-05)
(0.0302192 0.109487 -1.42334e-05)
(1.24255 0.825335 -0.00343461)
(0.0898997 0.622021 -0.00322133)
(0.246857 0.231503 -0.00120907)
(0.496492 -0.205909 0.000496364)
(0.23368 0.219828 -0.0012275)
(0.518193 -0.215278 0.00025291)
(0.0578499 0.212125 -2.39617e-05)
(0.0265241 0.0932328 -1.29325e-05)
(0.0305901 0.110949 -9.53715e-06)
(0.284407 0.660771 -4.09711e-05)
(0.274482 0.805801 -0.000152236)
(0.000997206 0.00339953 0.726218)
(0.000410657 0.00186396 0.360954)
(0.000594333 0.000995134 0.382052)
(-0.198244 1.83674 -0.000312067)
(-0.0657608 1.60654 -0.000154301)
(1.38214 0.922338 -0.00143606)
(0.0323036 0.0305481 2.21201e-05)
(0.378719 -0.155662 0.000141188)
(0.37547 -0.152657 0.000601531)
(0.0375549 0.0354779 1.07785e-05)
(0.000612969 0.00225145 0.541819)
(0.000470257 0.00116267 0.37844)
(0.000428544 0.00123848 0.340035)
(0.000641883 0.00183323 0.362101)
(-0.0892621 -0.718131 0.00361452)
(1.34428 0.889897 -0.00548669)
(1.32936 0.879988 -0.00542354)
(1.30559 0.864206 -0.00531981)
(1.32787 0.878998 -0.00541828)
(0.39806 1.94656 -0.0100834)
(0.175817 0.759866 -0.00400135)
(0.177722 0.768577 -0.00404346)
(0.419722 2.05343 -0.010623)
(0.270225 1.59555 -0.0081989)
(0.289137 1.70754 -0.00873515)
(-0.0242079 -0.14301 0.000758596)
(-0.0311491 -0.183141 0.000970951)
(-0.0555193 -0.345124 0.00181127)
(-0.0500502 -0.311324 0.00162488)
(-0.0409583 -0.240012 0.0012808)
(-0.0337279 -0.198051 0.00105146)
(0.253697 2.1562 -0.0109216)
(0.240559 2.04365 -0.010433)
(0.0243354 0.0897594 -0.000421471)
(0.0227182 0.0917221 -0.000467207)
(0.0342895 0.139311 -0.000466175)
(0.0323952 0.11973 -0.000588194)
(0.00138057 0.0049161 4.61628e-05)
(0.0252429 0.107682 -0.000407326)
(0.0345409 0.148951 -0.000651453)
(0.0201736 0.089392 -0.000320738)
(0.0403708 0.149392 -0.000750091)
(0.0443196 0.180609 -0.000653832)
(0.0346652 0.128173 -0.000634626)
(0.0426334 0.635383 -0.00319199)
(-0.00153745 1.02392 -0.00507934)
(-0.00172013 1.12918 -0.00559931)
(0.0469937 0.700645 -0.00352491)
(-0.0542569 1.3443 -0.00662071)
(1.29579 0.857682 -0.00526996)
(-0.0567472 1.40561 -0.00692601)
(-0.0486939 1.20726 -0.00594389)
(-0.0530476 1.31454 -0.00647478)
(1.29214 0.855255 -0.00525463)
(-0.001772 1.15782 -0.0057402)
(0.0513505 0.766728 -0.00384944)
(-0.00187419 1.21408 -0.00602133)
(0.048326 0.720992 -0.00359834)
(0.226607 1.33901 -0.00660386)
(0.411868 2.55898 -0.0152413)
(0.237716 1.58236 -0.0081138)
(0.247631 1.46098 -0.00758326)
(0.405284 2.52598 -0.0128639)
(0.377737 2.35344 -0.0122449)
(0.196093 1.3024 -0.00802505)
(-0.0813689 -0.597007 0.00263764)
(-0.102111 -0.820883 0.00433689)
(-0.0666475 -0.442137 0.00230794)
(-0.0568213 -0.353849 0.00188656)
(-0.0800557 -0.536301 0.00270765)
(-0.053103 -0.33144 0.0018037)
(-0.0244146 -0.135751 0.000761153)
(-0.0447224 -0.262576 0.00143347)
(0.00283334 0.00761525 0.000189015)
(-0.0473491 -0.279199 0.00155799)
(0.231309 1.0388 -0.0057172)
(0.179588 0.775549 -0.004056)
(0.238294 1.12229 -0.00583889)
(0.177695 0.767595 -0.00402275)
(0.225569 1.01648 -0.0053129)
(0.2413 1.13588 -0.00632913)
(0.36812 1.79837 -0.00952678)
(0.105229 0.411253 -0.00210962)
(0.0893385 0.349069 -0.00182258)
(0.0951068 0.346783 -0.00176949)
(0.0752598 0.274293 -0.00143159)
(0.0867909 0.339146 -0.00178431)
(0.0808851 0.316135 -0.00167886)
(0.0552994 0.199359 -0.00101461)
(0.0425181 0.15319 -0.000799652)
(0.12024 0.27861 -0.00140996)
(0.101669 0.235469 -0.00115195)
(-0.0207375 -0.157032 0.000847531)
(-0.0182801 -0.130632 0.00070865)
(0.0810263 0.413906 -0.00243038)
(0.0856687 0.427381 -0.00218029)
(0.123751 0.653004 -0.00397977)
(-0.0192433 -0.189978 0.000930438)
(-0.0198802 -0.181081 0.000956207)
(-0.0171587 -0.188589 0.000675682)
(-0.0211907 -0.293422 0.00146257)
(0.0769422 0.368023 -0.00204147)
(0.0815365 0.406829 -0.00206579)
(-0.00464711 -0.019519 0.000151141)
(0.00536713 0.0205467 6.15482e-06)
(-0.00138431 -0.00608417 9.84973e-05)
(0.0120373 0.0440334 -0.000155357)
(0.0176536 0.645514 -0.00318761)
(-0.00119635 0.845193 -0.0041859)
(0.0268234 0.564621 -0.00287112)
(0.036042 0.538448 -0.00277854)
(-0.104369 0.993326 -0.00624347)
(-0.0408639 1.01624 -0.00504144)
(1.20699 0.80591 -0.00183224)
(-0.450734 1.46747 -0.00670044)
(-0.0447195 1.10996 -0.00547651)
(-0.13946 1.29951 -0.00629717)
(-0.0120695 -0.0630127 0.000385272)
(-0.00896795 -0.0460867 0.000292988)
(-0.0107738 -0.0551232 0.000344347)
(-0.0102597 -0.0537632 0.000334256)
(-0.0248914 -0.136536 0.000634347)
(0.000904879 0.00218644 0.385827)
(0.058353 0.392297 -0.00202206)
(0.091795 0.635299 -0.00337505)
(0.0602997 0.405087 -0.00214486)
(0.125689 0.458581 -0.00229547)
(0.153062 0.558749 -0.00279611)
(0.0725503 0.261717 -0.00130693)
(0.0616851 0.215704 -0.00108701)
(0.0809216 0.283478 -0.00160273)
(0.0888117 0.32058 -0.0016163)
(0.4548 -0.190104 -0.00235632)
(0.210729 0.193486 -0.000170247)
(0.257986 0.239917 -0.00105449)
(0.525813 -0.219415 -0.000573878)
(0.224261 0.971714 -0.00495861)
(0.578375 2.83363 -0.0141285)
(0.221496 0.959931 -0.00479919)
(0.558394 2.73519 -0.0138196)
(-0.0659806 -0.533591 0.000907351)
(-0.00078146 -0.00809249 1.86349e-05)
(-0.000791617 -0.00815979 1.53939e-05)
(0.237787 1.03167 -0.00178058)
(0.626333 3.07095 -0.00646319)
(0.211226 0.9159 -0.00190996)
(-0.061068 -0.443611 0.00226989)
(0.177534 0.78096 -0.000768344)
(0.144284 0.666092 -0.000753363)
(0.177602 0.781313 -0.000885297)
(0.144261 0.66592 -0.000659744)
(0.0706724 0.259008 -0.000217554)
(0.0629092 0.230505 -0.000143624)
(-0.0334439 -0.245341 0.000265793)
(0.163336 0.808626 -0.000911567)
(0.0641513 0.337456 -0.000379365)
(0.0374365 0.135682 -0.000108294)
(0.0316165 0.114565 -6.61605e-05)
(1.38831 0.920296 -0.00046021)
(0.0215368 0.0202189 -1.0357e-05)
(0.38691 -0.160602 1.00501e-05)
(0.0216361 0.0203046 -1.33319e-05)
(0.375013 -0.155592 1.5845e-06)
(-0.0194656 -0.123103 0.000621023)
(-0.0223051 -0.14058 0.000714871)
(-0.0399666 -0.249267 0.00129311)
(-0.094525 -0.760055 0.00385254)
(-0.0347391 -0.2171 0.00112205)
(0.18432 0.797795 -0.00417785)
(0.196294 0.850411 -0.00443842)
(0.101719 0.444979 -0.00223801)
(0.0764686 0.350852 -0.00175888)
(0.105361 0.46103 -0.00232201)
(0.0730262 0.334918 -0.00167475)
(0.0424421 0.193346 -0.000920441)
(0.0670141 0.292015 -0.00141912)
(0.0739743 0.322704 -0.00158593)
(0.0483665 0.220812 -0.00107073)
(0.0577787 0.211276 -0.00115595)
(0.0561646 0.205236 -0.00112316)
(0.061827 0.225385 -0.00120981)
(0.0579678 0.211413 -0.00114583)
(0.013882 0.0709038 -0.000332365)
(0.0677689 0.332338 -0.00164469)
(-0.0687886 -0.499316 0.00258089)
(0.0239699 0.114571 -0.000486228)
(-0.00763422 -0.0429708 0.000273517)
(0.0311313 0.150279 -0.000682263)
(0.0313376 0.113321 -0.000626045)
(0.0299635 0.108268 -0.000598346)
(0.0333492 0.120169 -0.000647657)
(0.0307631 0.110902 -0.000605072)
(1.3079 0.865713 -0.00532538)
(1.27445 0.84358 -0.00511067)
(0.127103 0.119703 -0.000703189)
(0.363421 -0.150927 0.000469196)
(0.373313 -0.155034 0.000483749)
(0.115182 0.108465 -0.000640967)
(0.473752 -0.196503 0.000561523)
(0.217225 0.204548 -0.00116717)
(0.203125 0.191335 -0.00109856)
(0.454176 -0.18849 0.000553666)
(4.26859e-05 -0.0154932 3.23982e-05)
(0.000125359 -0.00944518 2.7567e-05)
(-0.0512742 -0.50413 0.00149006)
(1.48611e-05 -0.0174602 6.2515e-05)
(-2.75208e-05 -0.02056 6.00459e-05)
(-0.066217 -0.535085 0.00159166)
(-0.0527342 -0.517964 0.00212329)
(-6.81689e-05 -0.0234243 0.000106394)
(-7.0438e-06 -0.0190053 7.9611e-05)
(-0.0690323 -0.557245 0.00226788)
(-0.0694458 -0.560527 0.00231062)
(1.1087e-05 -0.0175418 9.11399e-05)
(-0.0559429 -0.54889 0.00259595)
(-6.01929e-06 -0.0188495 9.27032e-05)
(-0.0764594 -0.616219 0.00293022)
(1.36519 0.90391 -0.00546271)
(1.36295 0.902388 -0.00549728)
(1.35948 0.900054 -0.00551952)
(1.36466 0.903519 -0.0055086)
(0.219759 0.952192 -0.00488567)
(0.528589 2.58937 -0.0131894)
(0.546879 2.67873 -0.0135591)
(0.186664 0.809015 -0.00416426)
(0.17983 0.777943 -0.00408617)
(0.23676 1.06785 -0.00557135)
(0.267567 1.26147 -0.00652555)
(0.441399 2.16007 -0.0111406)
(0.181334 0.784585 -0.00411654)
(0.244176 1.10169 -0.00572991)
(0.256885 1.21076 -0.0062825)
(0.433864 2.12299 -0.0109673)
(1.38852 0.920385 -0.00247417)
(1.39249 0.92307 -0.0019775)
(1.39244 0.92304 -0.00134815)
(1.39355 0.923782 -0.00190041)
(0.452555 2.68284 -0.00331258)
(0.471099 2.79278 -0.00451854)
(-0.000854488 -0.00856647 1.11203e-05)
(-0.0659925 -0.533742 0.000840091)
(-0.000773309 -0.00804955 1.41065e-05)
(0.02248 0.127219 -0.000265303)
(0.0224918 0.127299 -0.000221438)
(0.0224196 0.126888 -0.000157596)
(0.0225219 0.127478 -0.00020612)
(0.257171 1.11595 -0.00125543)
(0.248855 1.07967 -0.00169699)
(0.638091 3.12991 -0.00497399)
(-0.055254 -0.366888 0.00188882)
(-0.0439601 -0.273844 0.00142334)
(-0.0647351 -0.470016 0.00241372)
(-0.0460422 -0.286656 0.00149162)
(-0.0601147 -0.398843 0.00206093)
(0.499247 4.27634 -0.0042264)
(0.503619 4.31343 -0.00351102)
(0.0836301 0.310966 -0.000196739)
(0.10811 0.443638 0.000279153)
(0.108228 0.44415 -0.000963842)
(0.083545 0.310678 -0.000266828)
(0.1406 0.648311 -0.000499861)
(0.175887 0.773528 -0.000538602)
(0.176926 0.778226 -0.000655121)
(0.14357 0.66255 -0.000563844)
(0.108252 0.444254 0.000147278)
(0.0834941 0.31052 -0.000360711)
(0.108266 0.444325 -0.00109451)
(0.0835406 0.310672 -0.000292995)
(0.0600212 0.908222 -0.000520651)
(-0.00240074 1.02502 -0.000575406)
(-0.00252604 1.11331 -0.000850073)
(0.0627046 0.949499 -0.000798395)
(-0.0604337 1.47145 -0.00123803)
(1.39069 0.921857 -0.000978512)
(-0.067189 1.63604 -0.00175762)
(-0.0522342 1.27324 -0.000696585)
(-0.0572757 1.39479 -0.00106238)
(1.38956 0.921091 -0.000862499)
(-0.0027249 1.20738 -0.00100199)
(0.0644475 0.97377 -0.00107122)
(-0.00318534 1.41522 -0.00152881)
(0.0640191 0.969469 -0.000897476)
(0.270878 1.2255 -0.00077122)
(0.208626 0.905386 -0.000660927)
(0.626752 3.07475 -0.00273475)
(0.374956 1.7726 -0.00180088)
(0.303137 1.43321 -0.000885928)
(0.61256 3.00494 -0.00235858)
(0.22651 0.983002 -0.00083636)
(0.337417 1.52627 -0.00150892)
(0.0838099 0.329193 -0.000192959)
(0.080412 0.315721 -0.000238754)
(0.0607615 0.222708 -0.000121848)
(0.0597931 0.219054 -0.000127864)
(0.0782583 0.307306 -0.000247914)
(0.700255 4.38121 -0.0033518)
(0.413839 2.45338 -0.00202527)
(0.702006 4.39379 -0.00366101)
(0.440549 2.94694 -0.00290487)
(0.462873 3.09575 -0.00257872)
(0.419669 2.4882 -0.00234709)
(-0.0317429 -0.233556 0.000168477)
(-0.0198845 -0.134677 0.000148076)
(-0.000825396 -0.00850086 8.84438e-06)
(-0.0193199 -0.131584 9.51585e-05)
(-0.000883464 -0.00904075 8.22301e-06)
(0.063295 0.332404 -0.000234802)
(0.160724 0.794812 -0.000562966)
(0.163102 0.807124 -0.000684349)
(0.0484132 0.260906 -0.000292544)
(0.0224165 0.126773 -0.000124232)
(0.0482667 0.259587 -0.00018556)
(0.0223461 0.126199 -0.000106194)
(0.0304178 0.11026 -6.04222e-05)
(0.0298446 0.108134 -5.93357e-05)
(0.0658075 0.239851 -0.00127578)
(0.0682703 0.24881 -0.00131618)
(0.0319784 0.111709 -0.000600203)
(0.0360568 0.129906 -0.000692472)
(0.0378908 0.132367 -0.000695877)
(0.037749 0.135997 -0.000720307)
(0.273782 0.803934 -0.000413899)
(0.274235 0.80512 -0.000244936)
(0.284157 0.660368 -0.000270199)
(0.284297 0.66066 -0.000220817)
(-0.194711 1.80358 -0.000391375)
(-0.0602979 1.47195 -0.000480157)
(1.38831 0.920652 -0.000443382)
(-0.808456 2.62859 -0.00104242)
(-0.0574421 1.4015 -0.00056635)
(-0.180372 1.66918 -0.000741762)
(0.0619202 0.22715 -8.48773e-05)
(0.0606281 0.22236 -3.29911e-05)
(0.0320283 0.116208 -4.52205e-05)
(0.0269546 0.0947778 -4.94562e-05)
(0.0262791 0.0923149 -1.03145e-05)
(0.0308971 0.112083 -1.4789e-05)
(0.446469 2.64023 -0.013306)
(0.389413 2.3026 -0.0116866)
(0.00143198 0.00525758 -1.21767e-05)
(-0.00172615 -0.0130107 8.04732e-05)
(-0.0270437 -0.169741 0.000870748)
(-0.0235304 -0.148121 0.000754821)
(-0.00702941 -0.0436811 0.000238702)
(-0.00311807 -0.0210618 0.000121493)
(1.3432 0.889195 -0.005482)
(1.35327 0.895893 -0.00551504)
(1.36041 0.900661 -0.0055252)
(1.35404 0.896407 -0.00551613)
(-0.0217041 -0.128533 0.000682556)
(-0.0157497 -0.0941065 0.000501428)
(0.348782 2.06116 -0.0104719)
(0.376466 2.22575 -0.0113065)
(-0.0929773 -0.747726 0.0037839)
(-0.0285752 -0.179167 0.00092053)
(-0.0329155 -0.205879 0.00106273)
(-0.00877774 -0.0537915 0.00029094)
(-0.0136448 -0.0819358 0.000437939)
(0.200117 0.8671 -0.00450301)
(0.51603 2.5277 -0.01292)
(0.189976 0.823277 -0.00424921)
(0.479478 2.34777 -0.0120588)
(0.283463 2.41014 -0.0122246)
(0.291848 2.48187 -0.0125973)
(0.0649213 0.265301 -0.00100085)
(0.0525445 0.194677 -0.000992708)
(0.055384 0.205239 -0.00104842)
(0.0609545 0.248994 -0.00157076)
(0.0966694 0.422727 -0.00212063)
(0.064357 0.294811 -0.00146432)
(0.0922078 0.403068 -0.00201576)
(0.0684618 0.313798 -0.00156502)
(0.0587212 0.217655 -0.00111363)
(0.0563292 0.208756 -0.00106739)
(0.0697689 0.285234 -0.00108022)
(-0.00218155 1.37686 -0.00682786)
(0.057666 0.861611 -0.00432137)
(0.0589819 0.881405 -0.00441915)
(-0.00212836 1.3498 -0.00669391)
(-0.0639931 1.58366 -0.00780194)
(1.34016 0.887156 -0.0054692)
(-0.0647288 1.60157 -0.00788873)
(-0.00220018 1.38618 -0.00687133)
(0.0604657 0.903767 -0.00452716)
(-0.0022327 1.39935 -0.00693451)
(0.0594186 0.88798 -0.00445126)
(-0.0635576 1.57298 -0.0077521)
(1.33701 0.885066 -0.00545618)
(-0.0623529 1.54343 -0.0076062)
(0.31775 2.70295 -0.0136694)
(0.311806 2.65216 -0.013422)
(0.0421658 0.156071 -0.000786311)
(0.0464579 0.172036 -0.000871985)
(0.0544155 0.222114 -0.00139311)
(0.0513315 0.190165 -0.000968713)
(0.0591351 0.241514 -0.000905072)
(0.0479043 0.177416 -0.000900472)
(0.0806512 0.352135 -0.00174491)
(0.0589298 0.269705 -0.0013319)
(0.0859461 0.375475 -0.00186979)
(0.0541346 0.247516 -0.00121342)
(-0.0574274 1.42228 -0.00701056)
(-0.0596877 1.47797 -0.00728289)
(1.31618 0.871235 -0.00536632)
(0.0521967 0.77947 -0.00391448)
(-0.00190712 1.2302 -0.00610355)
(-0.0020064 1.2859 -0.00637726)
(0.0545458 0.814717 -0.00408987)
(-0.00203668 1.30222 -0.00645829)
(0.0571006 0.85309 -0.00428028)
(0.0553475 0.826754 -0.0041483)
(-0.00210433 1.33814 -0.00663834)
(-0.0603546 1.49437 -0.00736397)
(1.32031 0.873977 -0.00538261)
(-0.0618657 1.5315 -0.00754995)
(0.0755886 0.295955 -0.00158654)
(0.075758 0.296487 -0.00159051)
(0.0556224 0.203072 -0.00110986)
(0.0558008 0.203861 -0.0011158)
(0.0760837 0.298075 -0.00159597)
(0.241388 1.13715 -0.00592016)
(0.405067 1.98119 -0.0102879)
(0.226857 1.0225 -0.0053483)
(0.175884 0.760331 -0.00401062)
(0.176909 0.764922 -0.00402971)
(0.233901 1.05481 -0.00550778)
(0.412973 2.0202 -0.0104553)
(0.252781 1.1913 -0.00618834)
(0.0770993 0.3015 -0.00161338)
(0.0767288 0.3001 -0.00160734)
(0.0757628 0.296459 -0.0015903)
(0.0556899 0.203272 -0.00111029)
(0.0571689 0.208539 -0.00113309)
(0.263913 1.75668 -0.00896939)
(0.420159 2.6191 -0.0133994)
(0.276409 1.63212 -0.00836493)
(0.283108 1.67182 -0.00856517)
(0.451132 2.81267 -0.0143602)
(0.441333 2.75151 -0.0140595)
(0.270717 1.80213 -0.00918558)
(-0.00173679 -0.0121574 9.28762e-05)
(-0.0263575 -0.15544 0.000824013)
(0.0511948 0.250015 -0.00121308)
(0.00566845 0.0274879 -0.0001044)
(-0.028848 -0.169839 0.000900185)
(-0.00954583 -0.0545882 0.000316464)
(-0.0658657 -0.43679 0.00227322)
(-0.0537667 -0.334244 0.00175061)
(-0.0659216 -0.478553 0.00246187)
(-0.051966 -0.323123 0.00168784)
(-0.0617463 -0.409577 0.00212032)
(0.462407 2.88317 -0.0147087)
(0.47166 2.94104 -0.0149904)
(0.294236 1.95926 -0.00995634)
(0.288293 1.91955 -0.00976218)
(-0.0215402 -0.119916 0.000668836)
(-0.03854 -0.225929 0.00120171)
(0.0444804 0.216661 -0.00103647)
(0.00232755 0.00982579 -1.11736e-05)
(0.0381722 0.185307 -0.000870962)
(-0.0361108 -0.211844 0.00112452)
(-0.0126079 -0.071229 0.000404779)
(0.0292994 0.105754 -0.00058341)
(0.0296388 0.107066 -0.000591772)
(0.0293185 0.105794 -0.000583079)
(0.0302268 0.108992 -0.000596575)
(0.116698 0.341545 -0.00172167)
(0.142469 0.41719 -0.00213794)
(0.189454 0.439317 -0.00231356)
(0.184139 0.426981 -0.00224692)
(0.156886 0.363732 -0.00190193)
(0.164992 0.382553 -0.00200804)
(0.149436 0.437646 -0.00224965)
(-0.595117 1.93898 -0.00912941)
(1.30243 0.862086 -0.00529768)
(-0.0560185 1.38768 -0.00683713)
(-0.16738 1.5587 -0.00759553)
(-0.567621 1.84956 -0.00876764)
(-0.498439 1.62357 -0.00754802)
(-0.516359 1.68228 -0.00792531)
(-0.14471 1.34835 -0.00656554)
(-0.0502015 1.24442 -0.00612476)
(1.2848 0.850373 -0.00520024)
(-0.550464 1.7938 -0.0084502)
(0.0873015 0.318249 -0.00163202)
(0.0804509 0.293254 -0.00152016)
(0.140278 0.132124 -0.000771886)
(0.398888 -0.165657 0.000520474)
(0.385402 -0.160054 0.000501375)
(0.153935 0.144999 -0.000841049)
(0.0540041 0.188787 -0.000958467)
(0.0504163 0.181701 -0.000929759)
(0.045898 0.165392 -0.000856483)
(0.0406325 0.141953 -0.000739957)
(0.184644 0.173942 -0.00100169)
(0.415437 -0.17252 0.000533022)
(0.432903 -0.179736 0.000547809)
(0.169509 0.159682 -0.000920428)
(0.611739 2.99908 -0.00660251)
(0.213052 0.923784 -0.00199145)
(0.250368 1.08553 -0.00268511)
(0.640087 3.13819 -0.00779919)
(0.226016 0.979587 -0.0038166)
(0.688125 3.37318 -0.0123895)
(0.233632 1.01298 -0.00374385)
(0.658018 3.22468 -0.0125893)
(0.191221 0.828839 -0.00389249)
(0.643128 3.15131 -0.0143689)
(0.222361 0.963794 -0.00443208)
(0.622926 3.05219 -0.0141916)
(-0.0659529 -0.533275 0.001034)
(-0.0332861 -0.243963 0.000504982)
(-0.045856 -0.334086 0.00165266)
(-0.0596875 -0.43367 0.00221607)
(-0.0974293 -0.783187 0.00398097)
(-0.051401 -0.50527 0.0016659)
(-0.00513628 -0.155075 0.000544641)
(-0.00514018 -0.15523 0.000500607)
(0.000175767 -0.00575702 2.19157e-05)
(0.000124371 -0.00951148 2.86162e-05)
(-0.000858036 -0.00856372 2.06079e-05)
(-0.0660025 -0.533515 0.00132537)
(-0.00097044 -0.00925788 2.50666e-05)
(-0.0665703 -0.537816 0.0017844)