/*--------------------------------*- C++ -*----------------------------------*\
| =========                 |                                                 |
| \\      /  F ield         | OpenFOAM: The Open Source CFD Toolbox           |
|  \\    /   O peration     | Version:  2306                                  |
|   \\  /    A nd           | Website:  www.openfoam.com                      |
|    \\/     M anipulation  |                                                 |
\*---------------------------------------------------------------------------*/
FoamFile
{
    version     2.0;
    format      ascii;
    arch        "LSB;label=32;scalar=64";
    class       volScalarField;
    location    "0.5";
    object      p;
}
// * * * * * * * * * * * * * * * * * * * * * * * * * * * * * * * * * * * * * //

dimensions      [0 2 -2 0 0 0 0];

internalField   nonuniform List<scalar> 
111542
(
60.4452
61.8045
65.0299
70.2819
77.6318
87.2859
99.3951
113.975
130.512
147.551
162.497
171.309
169.943
157.271
136.455
113.28
91.7192
73.2077
57.8239
45.3904
35.5274
27.9334
22.233
17.9151
14.6378
12.1241
10.0984
8.53033
7.36871
6.48298
5.78707
5.2222
4.79834
4.44286
4.10215
3.73276
3.28026
2.73899
2.00752
0.992977
59.3392
60.6576
63.8474
69.0323
76.3653
86.158
98.7741
114.453
133.009
153.344
172.712
185.54
184.21
167.491
141.312
114.387
90.8639
71.3367
55.5121
42.9995
33.3425
26.0567
20.6212
16.6385
13.6518
11.3311
9.51099
8.11072
7.04139
6.20827
5.54578
5.01246
4.58208
4.21284
3.86339
3.49459
3.06218
2.5207
1.79966
0.841206
57.151
58.3996
61.4396
66.429
73.6319
83.5533
96.8985
114.467
136.911
164.053
192.519
213.612
213.149
187.192
150.624
117.308
90.073
68.492
51.7715
39.0566
29.5756
22.9331
18.2247
14.7619
11.9127
9.58897
7.84129
6.57879
5.65617
4.96731
4.44859
4.05592
3.75202
3.50173
3.26858
3.01515
2.69676
2.25762
1.62564
0.726743
53.9389
55.0555
57.7887
62.3429
69.0949
78.7679
92.5062
112.005
139.674
178.765
213.866
256.243
261.387
219.884
167.168
126.618
93.7697
68.8052
50.4667
37.0348
23.1004
16.8047
14.5869
13.2891
11.2969
9.20917
7.54933
6.30771
5.34526
4.58327
3.98512
3.51905
3.15321
2.85503
2.59411
2.33752
2.04007
1.64033
1.047
0.148599
49.8224
50.7229
52.9405
56.6963
62.4222
70.9599
83.7515
103.219
133.396
178.276
255.164
341.167
364.29
255.263
169.92
122.006
83.1719
56.8176
39.3596
28.0505
20.5945
5.18379
4.64371
5.40358
4.86917
4.12974
3.62611
3.27011
2.97367
2.7245
2.52449
2.36531
2.23642
2.12397
2.01655
1.89909
1.74136
1.49027
1.02959
0.0729634
45.009
45.6023
47.0729
49.6031
53.5629
59.6841
69.2946
84.8479
111.111
165.862
259.53
454.151
618.19
241.718
166.15
113.525
66.8747
40.7523
25.4091
16.2808
15.014
14.472
13.3652
8.37442
5.01053
3.3827
2.49525
1.8644
1.39225
1.06515
0.853852
0.723193
0.647202
0.607489
0.590629
0.584457
0.573571
0.544398
0.500155
0.55499
39.8055
40.0172
40.5508
41.4894
43.009
45.4449
49.3772
55.7856
66.3616
105.709
181.342
411.836
1947.25
-432.288
178.134
80.3961
32.452
16.7137
8.20868
-1.79381
-6.81661
15.3461
14.8404
9.20055
5.71611
4.28408
3.57702
3.04261
2.61474
2.3024
2.08427
1.92981
1.81927
1.73864
1.67861
1.63122
1.58083
1.51754
1.43414
1.36287
34.6022
34.401
33.9168
33.1068
31.8983
30.1159
27.3518
22.6523
13.6207
15.7032
-1.48711
-162.773
-999.205
-1040.39
-314.499
-101.636
-45.9838
-25.491
-16.3533
-10.1018
-3.16816
-7.42261
-5.74236
-4.29262
-3.54224
-2.726
-1.90203
-1.22844
-0.699829
-0.262639
0.11216
0.434418
0.709935
0.942293
1.13307
1.27923
1.36423
1.35584
1.18705
0.732853
29.8022
29.2295
27.7889
25.3457
21.631
16.0881
7.69582
-5.43993
-26.9467
-50.4143
-124.402
-269.128
-478.67
-506.544
-320.988
-175.465
-100.42
-60.9676
-38.8842
-24.8742
-14.8076
-8.14464
-4.27954
-1.55214
0.0957403
1.11961
1.84194
2.35233
2.69229
2.91174
3.05125
3.13487
3.17521
3.17776
3.14128
3.05785
2.90303
2.62816
2.13958
1.25167
25.8396
24.9428
22.722
18.9737
13.3182
5.03375
-7.07974
-24.9848
-51.9523
-93.5715
-151.676
-224.511
-289.597
-297.086
-238.93
-165.462
-109.963
-74.3639
-51.2827
-35.2867
-23.9612
-16.4452
-11.5301
-8.05157
-5.57203
-3.79624
-2.45812
-1.41294
-0.592251
0.054407
0.56982
0.984047
1.31416
1.56786
1.74316
1.83259
1.81271
1.64126
1.2591
0.620995
23.0148
21.8944
19.1355
14.5099
7.59913
-2.31716
-16.3345
-35.9309
-62.9503
-99.2154
-144.613
-193.823
-232.015
-238.585
-207.648
-158.494
-113.915
-81.4131
-58.6057
-41.996
-29.6654
-20.6644
-14.1106
-9.31498
-5.80421
-3.24253
-1.36032
0.0343412
1.06606
1.82264
2.37154
2.76254
3.02867
3.18808
3.23926
3.19258
3.02456
2.68907
2.11489
1.1746
21.5478
20.3237
17.2795
12.2391
4.7115
-5.92969
-20.6915
-40.7004
-67.0847
-100.151
-138.324
-176.12
-203.56
-209.171
-188.98
-152.674
-115.04
-84.5382
-61.8889
-44.9944
-32.2423
-22.7323
-15.7763
-10.7287
-7.10243
-4.47676
-2.55641
-1.13618
-0.0764813
0.717675
1.31381
1.7595
2.08722
2.31922
2.40034
2.40529
2.29218
2.01098
1.51268
0.746847
59.8725
61.1847
64.3442
69.4425
76.5676
85.9177
97.6748
111.81
127.812
144.311
158.782
167.256
165.729
153.278
132.974
110.404
89.4693
71.485
56.5324
44.4152
34.8339
27.4313
21.8169
17.5892
14.3721
11.8645
9.8818
8.34649
7.18348
6.29713
5.61118
5.0739
4.65248
4.30065
3.97418
3.63155
3.22763
2.71401
2.01134
1.02193
58.7775
60.0643
63.169
68.2017
75.3131
84.8063
97.0383
112.234
130.221
149.955
168.763
181.301
179.634
163.185
137.651
111.466
88.6175
69.6456
54.2604
42.091
32.7101
25.5895
20.2454
16.3334
13.3971
11.099
9.29294
7.90018
6.83287
6.00469
5.35298
4.83541
4.41884
4.06603
3.74013
3.40284
3.0112
2.51091
1.83021
0.891135
56.6179
57.8389
60.7924
65.6316
72.6126
82.2256
95.1565
112.187
133.966
160.35
188.042
208.448
208.064
182.591
146.871
114.424
87.9276
66.9331
50.6596
38.3107
29.199
22.6987
17.9841
14.5231
11.709
9.42203
7.69959
6.45371
5.54193
4.86013
4.34723
3.96072
3.66448
3.4247
3.20864
2.98081
2.69884
2.30333
1.71022
0.80624
53.4504
54.5423
57.1942
61.6045
68.1403
77.5048
90.8136
109.729
136.638
174.797
210.367
252.085
257.064
215.952
164.251
124.367
92.0637
67.5413
49.5308
36.3749
22.7725
16.858
14.5092
13.0069
10.8799
8.73815
7.08227
5.87599
4.96125
4.24944
3.69972
3.27809
2.9535
2.69527
2.47638
2.26779
2.0296
1.69859
1.16877
0.266655
49.3941
50.274
52.4206
56.0484
61.5796
69.8352
82.2274
101.142
130.58
175.498
251.534
336.66
359.387
251.621
168.104
120.423
81.8739
55.7854
38.5096
27.3225
20.014
5.53501
5.19389
5.9366
5.22793
4.30295
3.66618
3.21676
2.84988
2.54797
2.3114
2.12956
1.99106
1.88172
1.79035
1.70523
1.60257
1.43044
1.06279
0.160283
44.6551
45.2328
46.6485
49.0781
52.8849
58.7863
68.0896
83.227
108.951
163.669
257.123
450.515
614.132
241.424
167.377
112.109
65.8328
39.9841
24.7763
15.5445
13.7329
11.2837
10.6229
6.45605
3.58841
2.29582
1.68751
1.2837
0.980011
0.768422
0.632069
0.54759
0.500966
0.482875
0.489181
0.517154
0.564118
0.629017
0.721878
0.920902
39.5316
39.7383
40.2381
41.1129
42.539
44.8485
48.6192
54.8426
65.257
104.58
180.194
410.476
1938.44
170.567
81.6762
32.7695
16.8868
7.94949
-2.26222
-10.5703
14.8601
14.1708
8.56298
5.23363
3.88479
3.19108
2.64311
2.19288
1.85289
1.60443
1.42032
1.28527
1.18828
1.1252
1.09371
1.09042
1.11518
1.17247
1.28601
34.4091
34.2187
33.7235
32.8904
31.6557
29.8535
27.0949
22.4714
13.6815
15.8374
-0.942021
-160.566
-986.675
-1030.71
-308.153
-99.1256
-44.5565
-24.9052
-16.2485
-10.1698
-3.29389
-8.37498
-6.94794
-5.48625
-4.47778
-3.41321
-2.42131
-1.63219
-1.02004
-0.526282
-0.117317
0.223352
0.50873
0.747709
0.949048
1.11692
1.24399
1.30348
1.22492
0.833118
29.7034
29.137
27.7051
25.2791
21.6015
16.1351
7.8936
-4.9587
-25.9589
-49.3285
-122.052
-265.121
-472.444
-497.508
-315.165
-171.714
-98.1379
-59.7469
-38.3134
-24.6845
-14.8626
-8.88371
-5.06778
-2.23623
-0.444818
0.679485
1.4484
1.97418
2.31442
2.52543
2.65179
2.72119
2.74942
2.74478
2.70969
2.64051
2.51765
2.29653
1.88682
1.10914
25.8086
24.924
22.7357
19.036
13.465
5.32773
-6.53928
-24.04
-50.363
-91.009
-147.806
-219.046
-282.851
-289.694
-232.458
-160.782
-107.017
-72.6964
-50.4333
-34.9628
-24.0134
-16.8047
-11.9694
-8.4877
-5.99762
-4.20759
-2.85022
-1.78487
-0.947088
-0.288107
0.23529
0.654261
0.987737
1.24545
1.4293
1.53448
1.54125
1.41072
1.08745
0.530281
23.0388
21.936
19.2183
14.6599
7.86864
-1.86026
-15.586
-34.7442
-61.1241
-96.5106
-140.786
-188.733
-225.921
-232.285
-201.965
-154.17
-110.999
-79.6197
-57.5857
-41.4976
-29.5321
-20.7866
-14.3691
-9.64544
-6.17339
-3.62842
-1.74925
-0.352831
0.67983
1.43488
1.98034
2.36692
2.62877
2.78615
2.84607
2.8106
2.66187
2.36002
1.84162
1.00105
21.6058
20.3893
17.4038
12.4229
5.04658
-5.39518
-19.8494
-39.4208
-65.1603
-97.436
-134.658
-171.466
-198.153
-203.641
-184.007
-148.64
-112.139
-82.6651
-60.7659
-44.3946
-32.0004
-22.738
-15.9434
-11.0052
-7.42293
-4.81663
-2.90554
-1.48831
-0.428718
0.365843
0.961834
1.40642
1.7308
1.95129
2.06518
2.08234
1.98282
1.72905
1.28014
0.611139
58.7929
60.0375
63.0263
67.8283
74.5263
83.3039
94.329
107.556
122.496
137.872
151.269
158.963
157.24
145.235
125.911
104.562
84.8231
67.864
53.7419
42.2712
33.1811
26.1058
20.6819
16.5876
13.4826
11.0716
9.18042
7.71601
6.59961
5.7498
5.09702
4.59012
4.18978
3.85952
3.56253
3.26036
2.9104
2.46015
1.84038
0.960738
57.7235
58.9463
61.8777
66.6135
73.2933
82.1976
93.655
107.868
124.673
143.093
160.629
172.062
170.29
154.485
130.23
105.509
83.9809
66.0902
51.5583
40.0498
31.162
24.2983
19.089
15.312
12.517
10.3325
8.60519
7.26214
6.22564
5.41997
4.78774
4.2882
3.88789
3.55493
3.25775
2.96206
2.62776
2.20206
1.61665
0.79728
55.6177
56.7779
59.5606
64.1048
70.649
79.6488
91.7434
107.667
128.049
152.79
178.807
198.041
197.216
172.752
138.893
108.293
83.317
63.5096
48.1363
36.4874
27.9795
21.5799
16.7847
13.3902
10.7556
8.63702
7.02769
5.85233
4.98666
4.3367
3.84703
3.47884
3.19862
2.97784
2.78908
2.60367
2.38446
2.07602
1.58974
0.787305
52.5335
53.5694
56.0597
60.1866
66.2939
75.0396
87.4718
105.168
130.432
166.467
201.619
241.625
246.092
206.226
156.802
118.766
87.8631
64.4369
47.231
34.6772
21.3044
15.5109
13.181
11.7017
9.62402
7.52437
5.88546
4.68061
3.76483
3.05643
2.51603
2.11099
1.81079
1.58774
1.41982
1.2853
1.1536
0.970048
0.630561
-0.0506337
48.5901
49.4214
51.4257
54.8001
59.9426
67.6267
79.1908
96.9185
124.7
168.604
242.116
324.668
346.394
241.56
162.145
116.034
78.4918
53.1951
36.4326
25.5333
18.2795
1.79472
2.83121
4.49499
4.08536
3.23485
2.62091
2.17399
1.79739
1.48034
1.22784
1.03478
0.894871
0.798231
0.74175
0.722876
0.735447
0.747064
0.644241
0.0308714
43.9913
44.5311
45.8356
48.065
51.5644
57.0152
65.6705
79.885
104.334
157.995
249.915
439.899
599.847
233.992
168.45
111.461
64.7434
38.6539
23.3358
13.9867
10.0236
4.14815
4.82882
1.82435
-0.675075
-1.89325
-2.4476
-2.773
-2.98212
-3.08883
-3.1131
-3.08436
-3.00825
-2.8959
-2.74509
-2.54593
-2.27531
-1.89131
-1.30098
-0.221349
39.0167
39.2068
39.6368
40.3846
41.6219
43.6692
47.0882
52.8786
62.8524
101.654
176.906
406.547
1915.92
205.936
77.2428
31.0662
15.4628
6.92227
-2.54047
-7.17944
15.2831
13.0878
6.60797
2.93072
1.3662
0.526919
-0.090329
-0.553205
-0.872186
-1.07828
-1.20462
-1.27027
-1.28067
-1.23495
-1.12391
-0.926848
-0.609967
-0.106452
0.697559
34.0579
33.8664
33.3473
32.4701
31.182
29.3331
26.5724
22.0809
13.7644
16.2058
0.854336
-153.798
-975.548
-1014.03
-295.254
-93.1151
-42.0705
-24.3089
-16.4684
-10.6823
-3.49278
-7.8087
-7.65199
-6.96253
-6.07778
-4.99034
-3.97286
-3.14583
-2.48239
-1.93482
-1.47269
-1.07941
-0.742005
-0.448467
-0.179139
0.0794626
0.338091
0.588461
0.77383
0.676996
29.5083
28.9524
27.5418
25.1515
21.547
16.2306
8.28618
-3.99642
-23.9347
-46.494
-116.036
-254.235
-455.66
-479.297
-300.756
-162.431
-92.969
-57.2029
-37.2474
-24.435
-15.1106
-9.63836
-6.03823
-3.30613
-1.55392
-0.462001
0.284581
0.804844
1.15267
1.37853
1.52624
1.62312
1.68593
1.72419
1.74798
1.75944
1.74891
1.68245
1.47441
0.927322
25.7458
24.8853
22.75
19.1491
13.749
5.90326
-5.47224
-22.1558
-47.1471
-85.6837
-139.574
-207.275
-268.069
-274.378
-219.595
-151.708
-101.376
-69.4823
-48.7452
-34.2512
-23.9908
-17.3159
-12.4972
-9.00846
-6.59584
-4.88261
-3.56089
-2.50046
-1.65233
-0.975547
-0.429139
0.0163891
0.380501
0.671738
0.898427
1.0592
1.1405
1.10957
0.910464
0.476392
23.0744
22.0014
19.3626
14.9449
8.38711
-0.969779
-14.1119
-32.3801
-57.4492
-91.0017
-132.933
-178.323
-213.557
-219.555
-190.788
-145.687
-105.242
-75.978
-55.3929
-40.2913
-29.023
-20.7526
-14.5516
-9.95984
-6.60992
-4.16209
-2.34352
-0.97947
0.0379816
0.788806
1.33832
1.73571
2.01507
2.19693
2.29328
2.30496
2.21863
2.00099
1.59202
0.880634
21.694
20.5102
17.6159
12.7933
5.68163
-4.35312
-18.1874
-36.8526
-61.3184
-91.9298
-127.166
-161.965
-187.18
-192.392
-173.903
-140.639
-106.428
-78.8784
-58.3778
-42.9876
-31.288
-22.5059
-16.0061
-11.2343
-7.75391
-5.22237
-3.36402
-1.97765
-0.932202
-0.140512
0.460238
0.915528
1.25583
1.49789
1.64861
1.70594
1.65656
1.47134
1.11141
0.54041
57.2959
58.4421
61.1779
65.5577
71.6472
79.6004
89.5519
101.438
114.793
128.447
140.195
146.674
144.659
133.343
115.521
96.015
78.0415
62.588
49.6866
39.1757
30.8166
24.2521
19.1337
15.2037
12.2115
9.90538
8.11116
6.72528
5.66591
4.85697
4.23492
3.75291
3.37477
3.06881
2.80414
2.54872
2.26608
1.91074
1.42564
0.746009
56.262
57.3882
60.0674
64.378
70.4381
78.4882
88.8065
101.554
116.561
132.933
148.427
158.109
156.111
141.355
119.122
96.6563
77.1198
60.8482
47.5973
37.0889
28.9643
22.5452
17.549
13.8805
11.1841
9.09973
7.45712
6.17928
5.19383
4.4305
3.83507
3.36879
3.00101
2.70374
2.45093
2.21511
1.96319
1.65045
1.21767
0.603263
54.2301
55.2968
57.8312
61.9506
67.8626
75.965
86.815
101.055
119.239
141.288
164.423
181.476
179.938
157.225
126.454
98.8189
76.2304
58.2713
44.3076
33.7807
26.2987
20.1598
15.16
11.7102
9.25784
7.36377
5.91154
4.8286
4.01893
3.4043
2.93758
2.58637
2.32372
2.1256
1.97352
1.84724
1.72041
1.54697
1.24307
0.652841
51.2601
52.2085
54.463
58.1795
63.6615
71.4892
82.5902
98.3719
120.929
153.245
186.817
223.446
226.816
189.285
143.982
109.249
80.7868
59.2527
43.4455
31.9853
19.8067
14.5895
11.3079
9.24313
7.26113
5.46336
4.0767
3.05486
2.2784
1.67645
1.21501
0.872266
0.623561
0.447426
0.336384
0.282109
0.273639
0.277203
0.203984
-0.171619
47.471
48.2265
50.0218
53.0268
57.596
64.4178
74.6919
90.4805
115.375
156.773
224.915
301.864
321.318
221.876
150.196
107.602
72.0337
48.3025
32.6611
22.5498
16.3259
0.0909287
1.20775
2.74597
2.36325
1.53685
0.88861
0.384597
-0.0441784
-0.403327
-0.690051
-0.899486
-1.04516
-1.13184
-1.15039
-1.08829
-0.925607
-0.655041
-0.345345
-0.392184
43.0623
43.5452
44.6848
46.6195
49.6596
54.418
62.0259
74.6473
96.669
147.555
235.58
418.138
569.288
213.194
162.13
107.051
60.3281
34.7895
20.0496
10.8793
6.59319
-5.5741
-2.12533
-2.30984
-3.37932
-3.96893
-4.23682
-4.44096
-4.62274
-4.75604
-4.8327
-4.87004
-4.8562
-4.79268
-4.66178
-4.43062
-4.03868
-3.37399
-2.23487
-0.289667
38.3047
38.461
38.7856
39.3446
40.2955
41.926
44.7476
49.7116
58.6237
95.771
169.54
400.007
1868.51
212.178
85.893
32.0533
13.8681
4.52492
-4.67028
-11.0439
13.3395
10.0448
3.36682
-0.262896
-1.92258
-2.89368
-3.60593
-4.12829
-4.48445
-4.71254
-4.83998
-4.8932
-4.88228
-4.7837
-4.57108
-4.1865
-3.52567
-2.40582
-0.552142
33.5699
33.3676
32.8106
31.8675
30.4935
28.5525
25.7385
21.3444
13.5787
16.2659
3.45205
-138.154
-923.563
-973.939
-270.958
-82.0897
-38.6503
-24.3818
-17.9131
-12.5103
-5.48202
-8.95571
-8.72767
-7.92622
-6.9599
-5.9117
-4.96438
-4.19586
-3.58394
-3.08884
-2.68151
-2.33075
-2.0413
-1.78725
-1.53194
-1.24648
-0.89463
-0.442285
0.0960552
0.457032
29.2331
28.6889
27.3056
24.9651
21.4603
16.3478
8.81295
-2.65993
-21.0218
-41.993
-106.02
-234.424
-423.536
-445.2
-275.669
-147.937
-85.592
-53.9273
-36.1511
-24.5892
-16.3163
-12.1424
-7.72497
-4.40643
-2.61636
-1.6667
-1.04676
-0.615394
-0.332251
-0.152833
-0.0350269
0.0481048
0.107982
0.159344
0.218619
0.296529
0.397914
0.512151
0.576637
0.416467
25.6504
24.8212
22.7639
19.305
14.1489
6.71913
-3.95058
-19.4411
-42.4317
-77.6506
-126.812
-188.563
-244.012
-249.643
-199.699
-138.296
-93.2947
-64.9101
-46.3419
-33.2791
-24.0964
-18.2941
-13.1988
-9.43424
-7.03233
-5.41904
-4.17461
-3.16558
-2.35661
-1.71106
-1.18877
-0.760064
-0.407368
-0.118017
0.121744
0.315802
0.459657
0.533056
0.488808
0.2593
23.1093
22.0798
19.554
15.3395
9.11581
0.293719
-12.006
-28.9713
-52.0876
-82.8476
-121.127
-162.445
-194.506
-199.966
-173.886
-133.199
-96.9319
-70.7261
-52.1882
-38.4933
-28.2463
-20.6927
-14.7883
-10.3025
-7.04928
-4.70532
-2.97556
-1.68154
-0.719785
-0.0131205
0.502804
0.876944
1.14305
1.32311
1.43261
1.47524
1.4425
1.31016
1.03124
0.530632
21.8
20.6646
17.9011
13.3123
6.57752
-2.8716
-15.8164
-33.1632
-55.7574
-83.8715
-116.085
-147.791
-170.726
-175.515
-158.872
-128.949
-98.2109
-73.4319
-54.9041
-40.9032
-30.2011
-22.1167
-16.0345
-11.4551
-8.0709
-5.61444
-3.82098
-2.48581
-1.47942
-0.71821
-0.141418
0.296003
0.624654
0.863384
1.02218
1.10121
1.09032
0.968267
0.706335
0.292021
55.4957
56.5177
58.9401
62.7992
68.1371
75.0657
83.6709
93.8555
105.171
116.563
126.116
130.979
128.53
118.145
102.341
85.2453
69.5281
55.9733
44.5942
35.2681
27.8179
21.9523
17.3399
13.7293
10.9374
8.77994
7.10859
5.82476
4.84536
4.09792
3.52542
3.08555
2.74522
2.47634
2.25323
2.05012
1.83567
1.57351
1.21609
0.695627
54.5043
55.5076
57.8737
61.6593
66.9514
73.9348
82.8145
93.6795
106.325
119.924
132.539
139.891
137.438
124.161
104.736
85.2914
68.362
54.1801
42.5571
33.2971
26.1431
20.4994
16.0363
12.6169
10.0287
8.01935
6.44173
5.22493
4.29331
3.57766
3.02618
2.60128
2.2743
2.01914
1.81583
1.64164
1.47217
1.27327
0.996338
0.566624
52.5603
53.5071
55.7321
59.3249
64.4491
71.4209
80.6766
92.705
107.903
126.124
144.987
158.433
155.964
135.916
109.543
86.0173
66.7152
51.2583
39.1475
30.0461
23.8801
18.6695
13.8986
10.4391
8.06164
6.30598
4.97281
3.9714
3.224
2.66129
2.23674
1.91933
1.68784
1.52058
1.40509
1.33006
1.28413
1.23879
1.12619
0.758114
49.7263
50.5618
52.521
55.726
60.4219
67.0776
76.4365
89.6185
108.301
134.898
165.258
195.869
197.416
163.971
125.059
95.2008
70.4803
51.8179
38.0735
28.2598
18.9297
16.102
11.0516
7.31142
4.76281
2.92191
1.61496
0.711121
0.0689014
-0.399048
-0.7359
-0.96531
-1.1066
-1.18203
-1.18995
-1.12224
-0.967396
-0.720404
-0.413688
-0.241069
46.1201
46.7777
48.31
50.8514
54.6924
60.3949
68.9299
81.9715
102.469
139.171
197.123
263.116
277.851
188.966
129.961
92.6031
60.9541
40.214
26.6377
18.1833
14.5589
5.85495
4.12129
2.82486
1.35887
0.106057
-0.813577
-1.46892
-1.97588
-2.38053
-2.7
-2.93098
-3.08958
-3.18874
-3.20784
-3.10587
-2.83078
-2.2986
-1.44962
-0.593098
41.9362
42.3449
43.2757
44.8386
47.2893
51.127
57.2694
67.4967
85.4631
130.543
209.48
374.292
509.629
176.572
153.885
94.0718
48.5519
25.0391
12.1132
4.37647
-4.58799
-30.7307
-27.7538
-25.7951
-24.7867
-23.6707
-22.6036
-21.7641
-21.0808
-20.4716
-19.9026
-19.3757
-18.8561
-18.3031
-17.6876
-16.9524
-15.9789
-14.5174
-12.0006
-6.99066
37.4427
37.5494
37.7388
38.0577
38.6344
39.6932
41.6401
45.2495
52.056
85.0441
152.733
372.045
1786.86
255.28
73.8549
18.5655
1.56868
-6.12904
-12.5494
-18.8472
0.158818
-3.43746
-8.78799
-11.3871
-12.4547
-13.0343
-13.4345
-13.6749
-13.7648
-13.7404
-13.6468
-13.4589
-13.1863
-12.814
-12.2859
-11.4924
-10.2008
-7.95861
-4.03347
32.9726
32.7543
32.1468
31.1168
29.621
27.5325
24.5771
20.1492
12.7837
15.0686
4.54783
-120.424
-841.75
-871.566
-234.012
-73.593
-39.6409
-28.5933
-22.9801
-17.693
-11.5845
-20.4883
-17.1802
-13.6636
-11.514
-10.0146
-8.87544
-8.03135
-7.4069
-6.92918
-6.55002
-6.22808
-5.95008
-5.68447
-5.3912
-5.02019
-4.50027
-3.71866
-2.54831
-1.04385
28.888
28.3583
27.0038
24.72
21.3289
16.4505
9.39193
-1.11375
-17.5152
-36.1729
-91.9998
-204.041
-369.772
-386.614
-237.758
-129.011
-77.0446
-50.5656
-35.374
-25.5306
-19.7006
-18.6643
-12.4406
-7.44554
-4.93923
-3.66245
-2.83653
-2.26639
-1.89138
-1.6479
-1.48184
-1.36109
-1.26736
-1.1741
-1.06088
-0.904812
-0.67896
-0.358883
0.0348351
0.289374
25.5192
24.7275
22.764
19.4767
14.6168
7.6934
-2.10748
-16.1018
-36.5107
-67.2605
-109.687
-162.494
-209.448
-214.269
-172.365
-120.921
-83.2055
-59.2122
-43.266
-31.9714
-24.2303
-19.7589
-14.6744
-10.5864
-7.95114
-6.18025
-4.82137
-3.73509
-2.88003
-2.21059
-1.68002
-1.25237
-0.907626
-0.621497
-0.377457
-0.162506
0.0304896
0.196282
0.296785
0.221314
23.1326
22.1566
19.7686
15.8021
9.98798
1.82566
-9.42495
-24.7484
-45.3549
-72.4265
-105.727
-141.285
-168.761
-173.487
-151.488
-117.22
-86.5266
-64.1069
-48.0207
-36.0141
-27.0247
-20.4458
-15.1546
-10.9052
-7.7076
-5.36245
-3.61444
-2.29602
-1.30803
-0.575543
-0.034996
0.362638
0.651952
0.858721
1.00034
1.08535
1.11188
1.06259
0.893652
0.502909
21.9058
20.8309
18.2263
13.9222
7.64861
-1.07677
-12.9096
-28.5959
-48.8016
-73.6731
-101.888
-129.424
-149.238
-153.446
-139.378
-114.039
-87.8533
-66.5355
-50.4008
-38.0756
-28.5898
-21.3963
-15.9219
-11.6667
-8.41981
-6.00959
-4.22082
-2.87078
-1.8411
-1.05465
-0.454138
0.00440839
0.352312
0.610826
0.792347
0.901139
0.931321
0.865527
0.67436
0.315459
53.5233
54.4058
56.4776
59.7561
64.2562
70.0406
77.1359
85.4001
94.3884
103.166
110.137
113.118
110.138
100.884
87.503
73.2302
60.1168
48.734
39.0687
31.0268
24.4868
19.273
15.1823
12.0007
9.52809
7.58968
6.06757
4.89137
3.9839
3.28076
2.73503
2.31176
1.9811
1.71876
1.5059
1.32462
1.1447
0.943015
0.692878
0.388963
52.578
53.4429
55.4585
58.6582
63.0934
68.8825
76.1414
84.8644
94.7766
105.076
114.052
118.737
115.626
104.209
88.2647
72.4504
58.6057
46.8545
37.0547
29.0544
22.6411
17.6154
13.7156
10.7387
8.44326
6.62175
5.16319
4.05441
3.19406
2.52124
1.99574
1.58628
1.26799
1.01358
0.818658
0.663769
0.532422
0.405909
0.270751
0.134347
50.7289
51.541
53.4192
56.4234
60.666
66.3655
73.8088
83.2807
94.9323
108.42
121.794
130.297
126.729
110.152
89.2743
70.9035
55.741
43.3194
33.2987
25.3943
19.1508
14.6623
11.0009
8.25374
6.17071
4.5609
3.32932
2.36672
1.64129
1.09625
0.685184
0.378518
0.159393
0.0172814
-0.0723243
-0.108432
-0.0917542
-0.0255554
0.0701549
0.147533
48.0414
48.7513
50.3787
53.0105
56.8228
62.1488
69.4977
79.5971
93.4672
112.377
137.306
158.733
157.81
130.805
100.219
76.8317
57.402
42.5275
31.2801
22.9077
11.8572
9.18611
6.1376
3.69141
1.57029
-0.122531
-1.38486
-2.26996
-2.90546
-3.37193
-3.70588
-3.92659
-4.05511
-4.11211
-4.09099
-3.97051
-3.728
-3.31241
-2.6439
-1.54863
44.6359
45.1815
46.4181
48.4387
51.4553
55.8712
62.3554
72.0298
86.809
116.1
157.396
203.375
208.993
138.895
96.484
68.8546
44.8665
28.9204
18.2489
11.5799
9.85151
-1.81718
-2.9095
-4.20712
-5.57968
-6.787
-7.80205
-8.37209
-8.72575
-8.97169
-9.13701
-9.23574
-9.25456
-9.19169
-9.06396
-8.79812
-8.31899
-7.47768
-6.02717
-3.59538
40.6993
41.0192
41.7148
42.8586
44.6367
47.3972
51.7645
58.9203
71.2157
106.172
166.567
290.149
386.655
105.086
111.067
56.0676
20.3271
2.69315
-6.74626
-11.7975
-10.8401
-24.759
-26.3552
-30.4512
-31.8211
-31.5914
-30.8191
-30.1548
-29.5021
-28.8108
-28.0947
-27.3529
-26.6194
-25.878
-25.054
-24.0798
-22.8089
-20.8944
-17.5265
-10.7173
36.4882
36.5344
36.5715
36.6204
36.7654
37.1453
37.9993
39.775
43.352
68.3197
120.307
300.98
1592.15
253.078
-15.7303
-57.9934
-66.3565
-67.4652
-65.6297
-61.0832
-35.3504
-34.6139
-36.6012
-36.6944
-35.7414
-34.6556
-33.687
-32.7606
-31.8375
-30.9232
-30.0441
-29.1638
-28.2355
-27.2682
-26.1656
-24.7711
-22.7119
-19.1142
-11.6822
32.3171
32.0674
31.4006
30.2701
28.6294
26.352
23.1759
18.569
11.3696
12.1148
2.81584
-93.5388
-666.959
-661.61
-189.285
-75.3505
-50.4966
-40.9952
-35.3246
-29.8398
-26.9659
-30.3338
-26.7904
-23.003
-20.5954
-18.8209
-17.432
-16.3555
-15.4989
-14.7891
-14.1802
-13.6435
-13.1669
-12.6738
-12.1533
-11.5518
-10.7683
-9.61771
-7.75726
-4.50571
28.4923
27.9803
26.6556
24.4312
21.1619
16.5312
9.97767
0.530519
-13.5185
-29.4638
-74.1772
-159.902
-283.727
-297.027
-187.444
-106.776
-67.3815
-46.3915
-33.8388
-25.642
-23.0849
-18.7338
-15.0559
-11.9225
-9.9455
-8.6142
-7.59738
-6.80301
-6.1883
-5.70784
-5.32178
-5.00138
-4.73144
-4.47818
-4.21742
-3.91974
-3.54129
-3.02104
-2.27893
-1.2276
25.3588
24.6096
22.7471
19.6479
15.1142
8.7491
-0.0891804
-12.4013
-29.8134
-55.1856
-89.1582
-129.953
-165.013
-169.272
-138.703
-100.014
-70.8042
-51.5874
-38.329
-28.6658
-21.8354
-18.0736
-14.5736
-11.5944
-9.3547
-7.66629
-6.32938
-5.25195
-4.38754
-3.69267
-3.12863
-2.6643
-2.28052
-1.95182
-1.66029
-1.39006
-1.12915
-0.868567
-0.609661
-0.359654
23.1397
22.2232
19.9876
16.2963
10.9373
3.51055
-6.56468
-20.0318
-37.7492
-60.4667
-87.7416
-116.17
-137.843
-141.609
-124.879
-98.6652
-74.4649
-56.2123
-42.7316
-32.4444
-24.5971
-18.849
-14.425
-10.9051
-8.18685
-6.12925
-4.56185
-3.35794
-2.43285
-1.72392
-1.1802
-0.762593
-0.442128
-0.19626
-0.00939531
0.127218
0.213188
0.238235
0.181268
0.0226562
22.0011
20.9942
18.5663
14.5785
8.81853
0.902523
-9.68182
-23.4911
-40.9679
-62.0822
-85.5993
-108.169
-124.21
-127.68
-116.751
-96.8252
-75.8684
-58.3875
-44.8256
-34.2571
-25.9934
-19.668
-14.8804
-11.2012
-8.37843
-6.23525
-4.60778
-3.36024
-2.39728
-1.65255
-1.07629
-0.629649
-0.284407
-0.0214029
0.171339
0.298692
0.355674
0.328354
0.201695
-0.0109519
51.5212
52.257
53.9692
56.6539
60.2988
64.9187
70.4822
76.806
83.4547
89.6189
94.041
95.1603
91.7167
83.7071
72.8223
61.3922
50.8732
41.6522
33.7024
26.9671
21.3857
16.8713
13.3202
10.6033
8.50548
6.84418
5.52538
4.49692
3.70245
3.08845
2.61345
2.24609
1.96086
1.73578
1.55263
1.39258
1.23201
1.04671
0.80823
0.487859
50.6231
51.3419
52.9984
55.5997
59.1607
63.7366
69.3545
75.9176
83.0881
90.1086
95.5821
97.4025
93.5797
84.1191
71.7948
59.6738
48.9677
39.7095
31.8034
25.1789
19.7226
15.3239
11.9281
9.44965
7.57502
6.08825
4.90598
3.98427
3.2637
2.69509
2.24494
1.88916
1.60861
1.38547
1.20749
1.06189
0.932365
0.797983
0.630204
0.390972
48.8706
49.5386
51.0628
53.467
56.8133
61.224
66.8378
73.7384
81.8345
90.5996
98.4795
102.092
97.1155
83.7894
68.4313
55.2844
44.347
34.9806
27.0624
20.5088
15.1187
10.926
8.34301
6.54585
5.00527
3.73825
2.78926
2.09911
1.59653
1.22816
0.95966
0.768047
0.637735
0.555027
0.509804
0.501133
0.526848
0.574908
0.608313
0.510846
46.3324
46.9042
48.1944
50.2448
53.1615
57.1438
62.4677
69.4715
78.5244
89.8878
101.621
109.261
101.996
80.9139
61.7713
48.3334
37.5375
28.5872
21.2131
14.9058
8.41348
2.1974
2.35521
2.81904
2.20361
1.2925
0.52263
-0.0690601
-0.540142
-0.918168
-1.21069
-1.42407
-1.56575
-1.64455
-1.65635
-1.58493
-1.41173
-1.11019
-0.66923
-0.152837
43.1292
43.5534
44.487
45.9824
48.164
51.2776
55.6844
61.922
70.7231
91.003
112.297
132.33
124.796
82.6946
57.4427
43.4079
29.1066
18.6429
11.3159
5.92037
0.45024
-13.8381
-11.0061
-7.98246
-6.66586
-6.01396
-5.5672
-5.21473
-4.96831
-4.81027
-4.70799
-4.63411
-4.57013
-4.49953
-4.38554
-4.17899
-3.8142
-3.18731
-2.19226
-0.883326
39.442
39.6666
40.1204
40.8412
41.9386
43.6071
46.1636
50.138
56.3858
78.5099
105.847
148.899
166.311
29.2998
20.7787
4.20917
-4.5631
-8.73931
-12.0709
-14.8118
-21.5633
-14.3307
-15.2599
-16.9678
-17.4389
-17.272
-16.9217
-16.5682
-16.2097
-15.8397
-15.4653
-15.0759
-14.6941
-14.3109
-13.8627
-13.2849
-12.4642
-11.1655
-8.94976
-5.09349
35.5125
35.4976
35.3777
35.1536
34.8633
34.5554
34.2861
34.1271
34.1367
48.3832
60.0063
130.742
174.571
-681.435
-123
-85.5129
-62.7625
-58.9267
-55.9873
-53.6556
-66.8625
-40.2009
-37.9441
-35.7607
-33.806
-31.908
-30.2291
-28.8008
-27.545
-26.4106
-25.3761
-24.4281
-23.5462
-22.6719
-21.7723
-20.7815
-19.5814
-17.8869
-15.072
-9.53193
31.6301
31.3599
30.6325
29.4019
27.6192
25.1516
21.7333
16.865
9.5796
7.84678
-14.347
-82.3208
-306.732
-259.438
-105.647
-55.9015
-34.9021
-26.2891
-21.6551
-17.577
-9.69627
5.60595
2.05624
-1.84895
-3.49815
-4.25881
-4.73895
-5.06205
-5.25983
-5.36601
-5.41182
-5.42336
-5.39597
-5.30529
-5.137
-4.8677
-4.43119
-3.70508
-2.53556
-0.982691
28.0924
27.5853
26.2908
24.131
20.9906
16.6113
10.5413
2.00465
-10.4492
-29.7426
-54.098
-108.823
-178.721
-189.194
-128.891
-80.0749
-53.1707
-37.3806
-27.4721
-20.1885
-10.4728
-1.80851
-2.87405
-4.27023
-4.21368
-3.68724
-3.18336
-2.76103
-2.40687
-2.11592
-1.8825
-1.69505
-1.54388
-1.41374
-1.2729
-1.09924
-0.868505
-0.55062
-0.162348
0.0904863
25.1848
24.4757
22.718
19.8147
15.618
9.82434
1.95927
-8.68038
-23.1033
-42.6061
-67.7292
-95.8538
-118.822
-122.384
-103.777
-78.2265
-57.3844
-42.7246
-32.0972
-23.7466
-16.6452
-11.7898
-9.04546
-7.04804
-5.25205
-3.76538
-2.6362
-1.79141
-1.15291
-0.668749
-0.30214
-0.0239955
0.185134
0.346051
0.480236
0.598137
0.702474
0.78081
0.775407
0.504039
23.1314
22.2771
20.1987
16.7928
11.9045
5.23355
-3.64057
-15.2177
-29.9872
-48.1769
-69.0907
-90.1902
-105.739
-108.837
-97.8652
-79.589
-61.8584
-47.7189
-36.8238
-28.1723
-21.1818
-15.7361
-11.5468
-8.43794
-6.08245
-4.26909
-2.87935
-1.81712
-1.00405
-0.382133
0.0910558
0.448134
0.71378
0.9073
1.0422
1.12471
1.14945
1.09393
0.906024
0.475861
22.0791
21.1444
18.9007
15.2417
10.0135
2.93011
-6.37629
-18.2672
-32.9538
-50.2093
-68.8801
-86.3632
-98.5582
-101.369
-93.6998
-79.2057
-63.4082
-49.7073
-38.6837
-29.8335
-22.6956
-17.0374
-12.6656
-9.3496
-6.80784
-4.8282
-3.28584
-2.09165
-1.17102
-0.463505
0.0774043
0.487182
0.792761
1.01309
1.15954
1.23626
1.23513
1.13395
0.890117
0.431399
49.6281
50.2212
51.5897
53.7154
56.5574
60.0917
64.2412
68.7997
73.3626
77.2634
79.5736
79.2706
75.6676
68.9672
60.3937
51.4976
43.2477
35.9193
29.5085
24.0015
19.389
15.6377
12.6782
10.3849
8.57408
7.10659
5.91717
4.96735
4.21623
3.62225
3.15085
2.7748
2.47136
2.22012
2.00233
1.79917
1.58724
1.33857
1.01973
0.593123
48.775
49.3515
50.6648
52.7076
55.4491
58.9003
63.0169
67.6399
72.4099
76.6639
79.3621
79.2071
75.2249
67.724
58.4965
49.4188
41.2677
34.076
27.8089
22.4757
18.0576
14.5193
11.8129
9.7606
8.12861
6.79038
5.70037
4.82267
4.11515
3.54107
3.07282
2.68944
2.37355
2.10891
1.88072
1.67479
1.47125
1.24292
0.951524
0.549131
47.1139
47.6421
48.827
50.6721
53.1875
56.4173
60.3844
65.0272
70.0967
74.9815
78.4432
78.5562
73.5173
64.0177
53.539
44.4769
36.78
29.9212
23.9129
18.8547
14.746
11.6475
9.61195
8.01989
6.56358
5.30784
4.31756
3.56039
2.97795
2.52571
2.17551
1.90596
1.70008
1.54374
1.42535
1.33584
1.26141
1.17593
1.02494
0.69031
44.7167
45.1567
46.1245
47.6332
49.7299
52.4999
56.0423
60.4203
65.5748
71.0918
75.6118
76.2132
69.2871