/*--------------------------------*- C++ -*----------------------------------*\
| =========                 |                                                 |
| \\      /  F ield         | OpenFOAM: The Open Source CFD Toolbox           |
|  \\    /   O peration     | Version:  2306                                  |
|   \\  /    A nd           | Website:  www.openfoam.com                      |
|    \\/     M anipulation  |                                                 |
\*---------------------------------------------------------------------------*/
FoamFile
{
    version     2.0;
    format      ascii;
    arch        "LSB;label=32;scalar=64";
    class       surfaceScalarField;
    location    "0.5";
    object      phi;
}
// * * * * * * * * * * * * * * * * * * * * * * * * * * * * * * * * * * * * * //

dimensions      [0 3 -1 0 0 0 0];

oriented        oriented;

internalField   nonuniform List<scalar> 
338621
(
24.9948
0.00241684
0.00145404
24.9869
0.00495793
0.00300504
24.9744
0.00778718
0.0047716
24.9569
0.0107903
0.00688454
24.9332
0.0140905
0.00964278
24.9001
0.0201036
0.0131991
24.853
0.0296131
0.0176478
24.7896
0.040221
0.0232784
24.7274
0.0319923
0.0302997
24.6842
0.00470483
0.0386017
24.6561
-0.0198806
0.048031
24.5826
0.015291
0.0581418
24.6116
-0.0978527
0.0686439
24.7425
-0.209535
0.0785225
24.7847
-0.129321
0.0870675
24.8175
-0.126549
0.0938095
24.8468
-0.127998
0.0987451
24.8708
-0.126222
0.102388
24.8911
-0.125128
0.104932
24.9185
-0.134126
0.106783
24.9491
-0.138456
0.107963
24.9724
-0.132196
0.108911
24.9903
-0.12763
0.109786
25.0049
-0.125064
0.110522
25.017
-0.123455
0.111295
25.0271
-0.12215
0.112128
25.0356
-0.121458
0.112949
25.0427
-0.120807
0.113738
25.0484
-0.120333
0.114569
25.0533
-0.120267
0.115387
25.0575
-0.120328
0.116142
25.0612
-0.1205
0.116772
25.0646
-0.120683
0.117353
25.0676
-0.120852
0.117833
25.0704
-0.121005
0.118147
25.0736
-0.121434
0.118306
25.077
-0.121633
0.118257
25.0807
-0.121796
0.11808
25.0849
-0.121981
0.117738
-0.122474
0.116998
24.9948
0.0048047
0.00142402
24.9868
0.0100459
0.00290498
24.974
0.0160991
0.00463784
24.9563
0.0218363
0.00671604
24.9327
0.0284072
0.00943262
24.9027
0.037294
0.0128617
24.8666
0.0484943
0.0173376
24.8205
0.063432
0.0230314
24.7557
0.0667428
0.0301979
24.6809
0.040673
0.0388589
24.6381
-0.0261296
0.0489886
24.6253
-0.0317448
0.059778
24.6644
-0.208967
0.0718131
24.7488
-0.377064
0.0829022
24.8295
-0.302226
0.0921578
24.8983
-0.294523
0.0992724
24.951
-0.285079
0.104412
24.9938
-0.277011
0.108102
25.0396
-0.281482
0.110713
25.0743
-0.281303
0.112465
25.0953
-0.273067
0.113653
25.1103
-0.26167
0.11451
25.1206
-0.253209
0.115363
25.1285
-0.249138
0.116115
25.1344
-0.246187
0.116861
25.1388
-0.244162
0.117599
25.1415
-0.242501
0.118391
25.1435
-0.24194
0.11918
25.145
-0.24183
0.119985
25.1457
-0.241781
0.120779
25.1461
-0.242203
0.121528
25.1459
-0.242521
0.122201
25.1458
-0.243415
0.122794
25.1458
-0.24405
0.123267
25.1458
-0.244656
0.123584
25.1461
-0.24548
0.123773
25.1468
-0.246025
0.123728
25.148
-0.246549
0.123556
25.1501
-0.247304
0.123169
-0.247469
0.122432
24.9952
0.00684658
0.00134968
24.9873
0.0152167
0.00274694
24.9751
0.0239996
0.00435004
24.9568
0.0337854
0.00638857
24.9322
0.044189
0.00898976
24.9006
0.0566176
0.0123424
24.8603
0.0720861
0.0168266
24.8107
0.0904768
0.0226098
24.7415
0.105974
0.0301381
24.6433
0.0992457
0.0396689
24.5667
0.00531354
0.0512299
-0.00616662
0.00543932
-0.00538149
24.6638
-0.0387808
0.0647466
-0.0585319
-0.0381339
-0.0582457
24.5566
-0.0111202
0.0775749
-0.095392
0.0211067
-0.094289
24.7297
-0.182038
0.0901059
-0.123724
-0.21232
-0.122404
24.8234
-0.128568
0.0997468
-0.121143
-0.126801
-0.119223
24.8847
-0.11757
0.106891
-0.115609
-0.115482
-0.113934
24.9392
-0.113644
0.111935
-0.113803
-0.112193
-0.1117
25.0055
-0.11604
0.115482
-0.1149
-0.114437
-0.113258
25.049
-0.11228
0.117957
-0.110777
-0.110678
-0.109207
25.0755
-0.108235
0.119466
-0.107056
-0.106597
-0.105371
25.0944
-0.412116
0.120186
25.109
-0.396993
0.120679
25.1183
-0.383914
0.121413
25.1254
-0.378382
0.122198
25.1308
-0.374575
0.122942
25.1346
-0.371476
0.123612
25.1367
-0.368853
0.124249
25.138
-0.368156
0.124886
25.138
-0.367396
0.125536
25.138
-0.36791
0.126198
25.1372
-0.368291
0.126852
25.1364
-0.369162
0.127468
25.1352
-0.370166
0.127964
25.1341
-0.371424
0.128441
25.1329
-0.372123
0.128696
25.1318
-0.373237
0.128818
25.1314
-0.374271
0.12868
25.1315
-0.37503
0.12837
25.132
-0.375658
0.127818
-0.376078
0.126953
24.9955
0.00915118
0.00123487
24.9886
0.0196485
0.00251031
24.9766
0.0320425
0.00395226
24.9596
0.0450496
0.00586225
24.9348
0.0607974
0.00826931
24.9001
0.0799247
0.0114651
24.8542
0.102223
0.0157896
24.7958
0.127475
0.0215434
24.7289
0.143619
0.0293032
6.14099
0.0368663
0.0396256
0.0541524
0.0381306
0.0541776
6.16315
6.14004
6.16114
6.1234
0.0171531
0.00575485
-6.11028
6.09812
-0.0341276
0.00748682
-6.10205
6.12359
-0.0419647
0.00927062
-6.11591
6.14293
-0.22017
0.0110902
-6.16172
6.17606
-0.155357
0.0124321
-6.18939
6.20017
-0.141693
0.0133429
-6.21155
6.22594
-0.142074
0.0140524
-6.23796
6.24524
-0.137876
0.0145657
-6.25111
6.25641
-0.132485
0.0149047
-6.26094
6.26514
-0.127572
0.015135
25.1062
-0.139059
0.125127
-0.139786
-0.138553
-0.140058
-6.26897
-6.27375
-6.26949
-6.27384
25.1132
-0.528874
0.124864
25.1174
-0.513439
0.125363
25.1212
-0.508327
0.126086
25.1226
-0.502876
0.126898
25.1219
-0.498501
0.127713
25.1205
-0.495938
0.128531
25.1175
-0.494497
0.129374
25.1133
-0.493433
0.130246
25.1081
-0.493847
0.131131
25.1023
-0.494554
0.131986
25.096
-0.49557
0.132761
25.0891
-0.496631
0.133354
25.0822
-0.498349
0.133864
25.0753
-0.499341
0.134045
25.0684
-0.500344
0.13399
25.0619
-0.501299
0.133571
25.0558
-0.501758
0.132819
25.0512
-0.502813
0.131768
-0.502522
0.130364
24.9972
0.00975695
0.00108027
24.9911
0.0235352
0.00219172
24.9813
0.0385271
0.0034413
24.9657
0.0555609
0.00511792
24.9427
0.0766338
0.00723648
24.9091
0.103493
0.0100686
24.8589
0.138483
0.0139057
24.7845
0.182728
0.0191966
6.17099
0.232697
0.0263995
6.16372
6.17068
6.1637
6.15488
0.0490441
0.00393361
6.12938
0.00545605
-6.15737
0.0201902
0.0118914
0.0116947
0.0203431
-0.0415814
-6.07652
6.04226
0.00729467
-0.00204182
0.0042659
0.00383688
-0.00181265
0.0226877
-6.0418
6.0602
0.00930583
0.0293305
-0.0399524
-0.0402301
-0.0188717
0.0419662
-6.11281
6.13833
0.0113266
-0.0514779
-0.0662353
-0.104239
-0.0518526
0.236919
-6.1708
6.18269
0.0120676
-0.0496288
-0.0534974
-0.0529224
-0.0499143
0.181993
-6.19437
6.20787
0.0127051
-0.0498645
-0.0490504
-0.0490239
-0.0498649
0.171602
-6.22156
6.23347
0.0132922
-0.0479783
-0.0478389
-0.0478697
-0.0479718
0.16647
-6.24316
6.25042
0.0137157
-0.0451878
-0.0450155
-0.0450301
-0.045199
0.159457
-6.2568
6.26141
0.0140241
-0.0425869
-0.042695
-0.0426902
-0.042615
0.15195
-6.26559
6.26794
0.0142482
-0.040393
-0.040726
-0.0406958
-0.0404383
0.145646
-6.27137
6.27375
-0.156068
0.0146216
25.0631
-0.612353
0.111114
-6.27498
-6.26988
-6.27516
-6.27072
25.0422
-0.6029
0.110331
25.0183
-0.59357
0.109134
24.9932
-0.58595
0.108139
24.9684
-0.581272
0.107599
24.9435
-0.578539
0.107499
24.9184
-0.577186
0.107767
24.8939
-0.577177
0.108308
24.8691
-0.578079
0.108985
24.8447
-0.579852
0.109663
24.8211
-0.582114
0.110208
24.7984
-0.584401
0.110481
24.7762
-0.586697
0.110518
24.7555
-0.58879
0.11015
24.7361
-0.590365
0.109399
24.7182
-0.591648
0.108225
24.7025
-0.592624
0.106621
24.6889
-0.593838
0.104634
-0.596054
0.102262
24.9998
0.00835776
0.000889841
24.9965
0.0251481
0.00180061
24.9889
0.0433234
0.00282958
24.977
0.0632659
0.00413953
24.9594
0.0884738
0.00586027
24.9322
0.122543
0.00811133
24.8891
0.170566
0.0111056
24.8167
0.239879
0.015262
6.1707
0.346685
0.0208236
6.1703
6.17067
6.17014
-0.0650531
6.14505
0.0875912
0.00309992
-0.019673
-1.52758
1.52243
0.0242483
0.000578953
-0.0195745
-1.50421
1.49209
0.0309716
0.000718017
-1.46862
0.0519037
1.47857
-0.0629276
0.00106529
-1.53047
0.0837713
1.53938
-0.0936508
0.000965202
-1.53751
0.0588922
-0.0613604
0.000801156
1.53917
-1.54807
0.0570469
-0.0606353
0.00103797
1.55062
0.0545758
-1.55649
1.558
-0.0573817
0.00129607
0.0503121
-1.56107
1.56164
-0.0524583
0.00157274
0.0472224
-1.56235
1.56245
-0.0490481
0.00172075
0.0445422
-1.56195
1.56163
-0.0459025
0.00167352
-1.55574
0.167641
6.16862
-0.157581
0.0124877
-1.54074
-1.55562
-1.53907
23.8814
-0.683274
0.0511808
-6.11083
-5.80033
-6.12225
-5.82827
23.891
-0.666267
0.0537472
23.8994
-0.656302
0.0543098
23.9078
-0.648782
0.0544597
23.9156
-0.643699
0.0546658
23.9227
-0.640505
0.054867
23.9293
-0.638835
0.0549666
23.9356
-0.638365
0.054883
23.9418
-0.638826
0.0545526
23.9479
-0.639892
0.0539362
23.954
-0.641223
0.0530205
23.9605
-0.642654
0.0517939
23.9673
-0.643833
0.0503489
23.9744
-0.644568
0.0486643
23.9822
-0.644954
0.0467782
23.9906
-0.644747
0.0446956
23.9996
-0.644033
0.0423779
24.0089
-0.642854
0.0397471
-0.640832
0.0367504
25.003
0.0044457
0.000679787
25.0036
0.0232276
0.00135513
25.0008
0.0440478
0.00212077
24.9951
0.0658923
0.00302417
24.9864
0.0930081
0.00418794
24.973
0.130296
0.0057005
24.9534
0.182529
0.00757784
24.9225
0.26078
0.00998956
6.21345
0.38683
0.0128719
6.22156
6.21318
6.22134
-0.105919
6.19806
0.119449
0.00185952
-0.039361
-1.54211
1.53596
0.0451885
0.000325445
-0.0822245
-1.50648
1.48791
0.100392
0.000394668
0.00440003
-0.0747029
0.0748891
-0.00461622
2.99776e-05
-0.0214185
0.000448624
0.0209315
2.408e-06
3.59967e-05
-0.211484
0.0122862
-0.0241779
0.00167617
0.2217
-1.14997
0.0503164
-0.0705572
-0.00331659
1.17353
0.0483525
-1.22535
1.23729
-0.056485
-0.00380229
0.0494841
-1.27187
1.2826
-0.0570416
-0.00317383
0.0475765
-1.3089
1.31652
-0.0531061
-0.00208844
0.0451722
-1.33499
1.34151
-0.0505971
-0.00109243
-1.38328
0.187131
5.80302
-0.208822
-0.0075329
-1.49143
-1.40335
-1.49574
24.0245
-0.639991
-0.0848591
-5.85114
-6.16573
-5.80121
-6.16481
24.0563
-0.614272
-0.0837952
24.0852
-0.602696
-0.0824876
24.1128
-0.595072
-0.0813492
24.1387
-0.589285
-0.0803537
24.1632
-0.585468
-0.0795445
24.1868
-0.583368
-0.0790591
24.2097
-0.582452
-0.0788203
24.2321
-0.582408
-0.0787946
24.2539
-0.582863
-0.0788791
24.2752
-0.583506
-0.0789951
24.2958
-0.584191
-0.0789912
24.3155
-0.584655
-0.0789006
24.3343
-0.584756
-0.0786144
24.3519
-0.584361
-0.0782267
24.3686
-0.583641
-0.077821
24.3844
-0.582302
-0.0775014
24.3991
-0.580145
-0.0774554
-0.576461
-0.077854
25.0048
-0.000517893
0.000447567
25.0101
0.0169944
0.000896911
25.0152
0.0376612
0.00135887
25.0192
0.0599242
0.00187754
25.0213
0.0885031
0.00243634
25.0265
0.121919
0.00309791
25.0389
0.166419
0.00372412
25.0652
0.230292
0.00415091
6.27472
0.330867
0.00407809
6.28252
6.27504
6.28488
-0.111405
6.28251
0.103148
0.000469355
-0.0445473
-1.57806
1.57975
0.0428097
4.26211e-05
-0.0840514
-1.59818
1.61305
-3.77897e-05
0.0692193
-0.0260992
-1.71203
1.75057
-0.000484731
0.0570099
-0.0213368
-0.0262054
-0.02143
0.095365
-1.71144
1.68243
0.000120677
-0.0664712
0.0989063
-1.60952
-0.000558007
1.59899
-0.0878176
0.0756261
-1.58438
-0.000955869
1.58144
-0.0717194
0.0547431
-1.57671
1.57576
-0.0525562
-0.00123163
0.0555207
-1.57398
1.57218
-0.0522861
-0.00143304
0.0498539
-1.57181
1.57117
-0.0476615
-0.00155519
0.0461741
-1.57028
1.5698
-0.0440812
-0.00161239
-1.56754
0.17209
6.26444
-0.153598
-0.013918
-1.56706
-1.56726
-1.56715
25.0727
-0.523853
-0.112048
-6.2685
-6.26839
-6.2707
-6.2692
25.0749
-0.505451
-0.110933
25.0729
-0.491341
-0.109377
25.0698
-0.483894
-0.10808
25.0668
-0.479149
-0.107198
25.0642
-0.476182
-0.106685
25.0619
-0.474394
-0.106638
25.0596
-0.473173
-0.10696
25.0578
-0.47298
-0.107625
25.0562
-0.472765
-0.108541
25.0548
-0.472427
-0.10967
25.0538
-0.472467
-0.110771
25.0532
-0.472078
-0.111945
25.0526
-0.471114
-0.113004
25.0526
-0.470361
-0.11403
25.053
-0.469026
-0.115018
25.0539
-0.467208
-0.115992
25.0554
-0.464658
-0.117026
-0.461623
-0.118032
25.0058
-0.00558052
0.000210708
25.0143
0.00800964
0.000441222
25.0275
0.0238957
0.000624659
25.0389
0.0476638
0.000755827
25.0544
0.0721432
0.000790165
25.0781
0.0975408
0.000630918
25.1163
0.128085
0.000121886
25.1798
0.167884
-0.00117156
6.32083
0.229654
-0.00369103
6.319
6.32523
6.31959
-0.0883102
6.33696
0.0729256
-0.00074119
-0.0331049
6.41337
0.087309
-0.00153833
-0.0342862
-0.0332625
-0.0339015
-6.36459
-0.0332491
6.51652
0.0751399
-0.00298919
-0.0259901
-0.033111
-0.0259056
-6.47041
-0.00735005
-6.54659
6.51238
-0.00595068
-0.00517124
0.0149302
-0.00752907
0.0453135
0.044836
-6.53396
6.51224
-0.122476
-0.00781411
0.0387489
0.0354727
0.0329983
0.0543256
-6.4478
6.4102
-0.176044
-0.0101537
0.0549577
0.0567248
0.0578218
0.0556508
-6.37029
6.33823
-0.173863
-0.0119022
0.0543713
0.0547127
0.053089
0.0458138
-6.32027
6.30925
-0.155291
-0.0131731
0.0448611
0.0447343
0.0440644
0.0436902
-6.30082
6.29518
-0.15384
-0.0139984
0.0434349
0.0433062
0.0430498
0.04058
-6.29096
6.2858
-0.140564
-0.0144487
0.040057
0.0401028
0.0394391
0.0375555
-6.28174
6.27646
-0.128109
-0.0146566
0.0370667
0.0370317
0.0363943
0.138107
-6.27502
6.2733
-0.12158
-0.0147951
25.0746
-0.39369
-0.121637
-6.27088
-6.2709
-6.2712
-6.27016
25.0673
-0.377353
-0.120753
25.0635
-0.367441
-0.120068
25.0604
-0.361266
-0.119601
25.0581
-0.357537
-0.119265
25.056
-0.355135
-0.119012
25.0544
-0.353878
-0.118861
25.0533
-0.353231
-0.118824
25.0521
-0.35298
-0.11889
25.0513
-0.352904
-0.119036
25.0508
-0.352615
-0.11926
25.0505
-0.352732
-0.119469
25.0502
-0.352146
-0.119627
25.0508
-0.351906
-0.119797
25.0515
-0.351076
-0.119958
25.0523
-0.349779
-0.120111
25.0541
-0.348662
-0.120321
25.0572
-0.347077
-0.120657
-0.345484
-0.121167
25.0064
-0.01065
6.13251e-05
25.0164
-0.00206273
8.33313e-05
25.0254
0.0148069
1.68697e-05
25.0422
0.0310302
-0.000159703
25.069
0.0457957
-0.000576908
25.1027
0.0651151
-0.00136801
25.1505
0.0829724
-0.00275422
25.2171
0.10631
-0.00518611
25.3261
0.129808
-0.0092862
25.4309
0.143078
-0.0158395
-0.0606935
-0.0562948
-0.0583854
-0.056838
25.5779
0.12995
-0.0256039
-0.0600559
-0.063404
-0.0613151
-0.0666853
25.7104
0.0515072
-0.0394151
-0.0412603
-0.0273819
-0.0448244
-0.0309267
25.587
-0.159447
-0.0562362
0.0218351
0.12453
0.0206714
0.172389
25.4943
-0.24024
-0.0747338
0.0834238
0.116876
0.0994396
0.10826
25.4257
-0.250026
-0.0907222
0.0826802
0.148034
0.0317959
0.146941
25.3404
-0.352936
-0.102697
0.134674
0.137515
0.133469
0.135145
25.2573
-0.321151
-0.110269
0.128008
0.131451
0.126026
0.128868
25.1926
-0.32935
-0.114771
0.130489
0.127234
0.127458
0.123559
25.151
-0.306406
-0.117246
0.119855
0.116499
0.11655
0.112284
25.1287
-0.285724
-0.118472
0.108733
0.108351
0.104041
0.105376
25.1106
-0.26993
-0.118884
0.103667
0.102857
0.100932
0.099447
25.0946
-0.25906
-0.11858
25.0848
-0.249399
-0.118217
25.0783
-0.242937
-0.118017
25.0734
-0.238289
-0.118006
25.0692
-0.235345
-0.118033
25.0661
-0.233913
-0.118179
25.0631
-0.232405
-0.118432
25.0607
-0.232084
-0.118778
25.0585
-0.231534
-0.1192
25.0568
-0.231606
-0.119662
25.0558
-0.231457
-0.120146
25.0547
-0.230971
-0.120631
25.0544
-0.230847
-0.121012
25.054
-0.230068
-0.121427
25.0541
-0.229368
-0.121783
25.0551
-0.228696
-0.122129
25.0568
-0.227816
-0.122503
25.0586
-0.22595
-0.122956
-0.224329
-0.123513
25.0067
-0.0154578
-7.76832e-05
25.01
-0.00516809
-0.000180178
25.0178
0.00730859
-0.000421547
25.0376
0.0119994
-0.000792601
25.0633
0.0214909
-0.00150118
25.0929
0.0380536
-0.00270899
25.1411
0.0392207
-0.00462612
25.2027
0.0522694
-0.00763046
25.282
0.0626424
-0.0123274
25.3777
0.066522
-0.0192341
25.4839
0.0526611
-0.0288905
25.5627
0.0147392
-0.0418073
25.539
-0.0784462
-0.057059
25.5239
-0.152041
-0.0728569
25.401
-0.0402388
-0.0868177
25.3189
-0.173078
-0.0977882
25.2697
-0.166987
-0.105045
25.2094
-0.159479
-0.109712
25.1659
-0.150553
-0.112367
25.1352
-0.14133
-0.113814
25.1129
-0.133172
-0.114519
25.0956
-0.127117
-0.114666
25.0832
-0.122309
-0.114685
25.074
-0.119064
-0.114681
25.0672
-0.116737
-0.114784
25.0622
-0.115401
-0.114874
25.0577
-0.114363
-0.115083
25.0546
-0.113939
-0.11538
25.0522
-0.113992
-0.11567
25.0503
-0.113674
-0.115999
25.0489
-0.113918
-0.116314
25.0477
-0.113669
-0.116603
25.0474
-0.113863
-0.116803
25.0471
-0.113542
-0.116953
25.0476
-0.113525
-0.11706
25.0483
-0.112955
-0.117101
25.0495
-0.112789
-0.117111
25.0511
-0.112294
-0.117139
25.0539
-0.111534
-0.117254
-0.111683
-0.117536
24.987
-0.000137058
24.9821
-0.000271081
24.9899
-0.000601576
25.0028
-0.00100749
25.026
-0.00187567
25.0671
-0.00320881
25.1115
-0.00529642
25.1721
-0.008527
25.248
-0.0134241
25.3347
-0.0203317
25.417
-0.0296565
25.4735
-0.041641
25.4506
-0.0554206
25.3683
-0.0695586
25.4104
-0.0822857
25.33
-0.0927981
25.2629
-0.0999615
25.2078
-0.104455
25.1642
-0.107106
25.1314
-0.108587
25.1075
-0.109377
25.0901
-0.109709
25.0776
-0.109835
25.0684
-0.10988
25.0617
-0.110061
25.0566
-0.110284
25.0528
-0.110612
25.05
-0.111081
25.0474
-0.111489
25.0457
-0.111959
25.0442
-0.112438
25.0434
-0.11283
25.0427
-0.113133
25.0425
-0.113383
25.0426
-0.113616
25.0434
-0.113761
25.0445
-0.11385
25.0461
-0.113939
25.0487
-0.114098
-0.114417
24.9953
0.00182631
0.00273578
24.9882
0.0046186
0.00562064
24.977
0.00723967
0.0089664
24.9606
0.0104698
0.0130653
24.9389
0.0134594
0.0182503
24.9092
0.0183862
0.0249501
24.8668
0.0268891
0.0335566
24.809
0.0370693
0.0444833
24.7529
0.0287574
0.0580291
24.7162
0.00101712
0.0744994
24.6911
-0.0201098
0.0932329
24.629
0.00619623
0.113714
24.6584
-0.0958051
0.134636
24.7775
-0.195619
0.154633
24.8121
-0.119424
0.171794
24.8383
-0.117552
0.185238
24.8633
-0.121153
0.195168
24.8838
-0.120109
0.202376
24.9012
-0.119595
0.207495
24.9285
-0.131382
0.211125
24.9554
-0.132345
0.213622
24.9759
-0.127031
0.215531
24.9919
-0.123246
0.217138
25.005
-0.121107
0.218609
25.0157
-0.119378
0.220035
25.0249
-0.118474
0.221452
25.0326
-0.117574
0.222866
25.039
-0.116925
0.224256
25.0447
-0.116718
0.225633
25.0497
-0.116656
0.226976
25.0541
-0.116434
0.228227
25.0578
-0.116268
0.229354
25.0615
-0.116639
0.230295
25.0652
-0.117002
0.231099
25.0686
-0.116853
0.231637
25.0721
-0.117246
0.231988
25.0758
-0.117366
0.231966
25.0797
-0.117557
0.231735
25.0843
-0.118004
0.231103
-0.118312
0.229584
24.9954
0.0036627
0.00266834
24.9884
0.0092168
0.00547896
24.9767
0.0150348
0.00874857
24.9604
0.0209683
0.0127789
24.9383
0.0274268
0.0179038
24.9104
0.0349325
0.0245747
24.877
0.0447958
0.0332193
24.8341
0.059042
0.0443602
24.771
0.0639136
0.0584752
24.695
0.0400789
0.0759367
24.6517
-0.0243435
0.0964086
24.5904
0.00762636
0.11927
24.6264
-0.203278
0.142681
24.7599
-0.411585
0.164931
24.8423
-0.293344
0.18344
24.912
-0.285523
0.19764
24.9639
-0.276366
0.208069
25.0053
-0.268529
0.215477
25.0511
-0.275134
0.22073
25.0834
-0.275404
0.224329
25.1022
-0.264136
0.226802
25.1153
-0.254262
0.228694
25.124
-0.246813
0.230343
25.1304
-0.24315
0.231807
25.1355
-0.240738
0.233174
25.1388
-0.238659
0.234512
25.1409
-0.237115
0.235874
25.1427
-0.236849
0.237264
25.1438
-0.236482
0.238668
25.1443
-0.23638
0.240046
25.1447
-0.236705
0.241351
25.1453
-0.237134
0.242533
25.1452
-0.237368
0.243593
25.1451
-0.238101
0.244436
25.1456
-0.238835
0.245048
25.1459
-0.239074
0.245392
25.1466
-0.239847
0.245428
25.1482
-0.240674
0.245138
25.1499
-0.241046
0.244494
-0.241893
0.242922
24.9955
0.00549329
0.00252888
24.9887
0.0137034
0.00519268
24.9773
0.0227516
0.00830576
24.9605
0.0321899
0.0121735
24.9374
0.0426501
0.0171463
24.9072
0.0540814
0.0237058
24.8689
0.0678069
0.0323841
24.8222
0.0848337
0.0438586
24.7564
0.101248
0.0589008
24.6614
0.096801
0.0781716
24.5836
0.00535987
0.101819
-0.00485847
0.00578572
-0.00337788
24.7172
-0.0380894
0.128742
-0.0587216
-0.0367721
-0.0569475
24.5758
0.0213969
0.156491
-0.0950032
0.0237264
-0.0919165
24.7391
-0.214308
0.182641
-0.123577
-0.21086
-0.11943
24.8311
-0.128002
0.202531
-0.120564
-0.123829
-0.115884
24.8925
-0.11715
0.217078
-0.11571
-0.11294
-0.11097
24.9474
-0.114213
0.227587
-0.113567
-0.109769
-0.10885
25.013
-0.116247
0.234914
-0.114983
-0.111759
-0.110255
25.0553
-0.112575
0.239963
-0.111161
-0.10822
-0.107252
25.081
-0.108996
0.243261
-0.107315
-0.105324
-0.103216
25.0994
-0.407587
0.245208
25.1123
-0.393307
0.246817
25.1209
-0.382228
0.248308
25.1271
-0.377459
0.250279
25.1317
-0.374207
0.251804
25.1348
-0.371486
0.253385
25.137
-0.369353
0.254365
25.1377
-0.368265
0.255564
25.1377
-0.367725
0.256743
25.138
-0.368333
0.257899
25.1371
-0.36794
0.258999
25.1362
-0.368734
0.260007
25.1356
-0.369527
0.260637
25.1344
-0.369981
0.26158
25.133
-0.370799
0.262023
25.1321
-0.371537
0.262174
25.1314
-0.372431
0.261968
25.1311
-0.373319
0.261357
25.1318
-0.374238
0.260339
-0.374967
0.258398
24.9965
0.00693979
0.00231489
24.9901
0.0180384
0.00475346
24.9789
0.0304351
0.00761449
24.9624
0.0435336
0.0111982
24.9392
0.0584745
0.0158637
24.906
0.0769121
0.0221075
24.861
0.0981616
0.0305922
24.8029
0.122577
0.0421478
24.7349
0.140876
0.057936
6.14252
0.0377726
0.07934
0.052941
0.0382364
0.0532166
6.16274
6.14262
6.1623
-0.0114277
6.1254
0.0165559
0.0173559
-0.0150147
-6.11331
6.1014
-0.0340512
0.0228093
-0.0187362
-6.10529
6.09791
0.0188362
0.0285439
-0.0224561
-6.11323
6.14529
-0.258298
0.0342673
-0.0252407
-6.16335
6.17741
-0.155422
0.0385526
-0.0271843
-6.19058
6.2016
-0.14248
0.0415065
-0.0285897
-6.21267
6.22717
-0.143776
0.0436946
-0.0295602
-6.24007
6.24733
-0.139178
0.0452528
-0.0302117
-6.25324
6.25847
-0.133885
0.0462966
-0.0306237
-6.26232
6.26639
-0.129489
0.0470344
25.1075
-0.142757
0.26817
-0.143231
-0.143153
-0.140988
-6.27033
-6.27403
-6.27011
-6.27371
25.1157
-0.5464
0.269695
25.1202
-0.531455
0.270091
25.1237
-0.526861
0.272004
25.1248
-0.522211
0.273734
25.1235
-0.518143
0.275673
25.1214
-0.515677
0.276985
25.1179
-0.513825
0.278444
25.1132
-0.512591
0.279805
25.1073
-0.512324
0.281056
25.1011
-0.511889
0.28217
25.0941
-0.512153
0.283109
25.0866
-0.512185
0.283546
25.079
-0.512719
0.284217
25.0712
-0.513194
0.284186
25.0638
-0.513926
0.283821
25.0562
-0.514129
0.282836
25.0493
-0.514864
0.281255
25.0441
-0.516232
0.279004
-0.516554
0.275588
24.9983
0.00673051
0.00202654
24.993
0.0214108
0.00415802
24.9834
0.0370031
0.00665916
24.9685
0.0538085
0.00980468
24.9462
0.0742423
0.0139308
24.9139
0.100258
0.0192519
24.8649
0.133974
0.0272
24.792
0.176881
0.0378961
6.17323
0.226417
0.0530832
6.1663
6.17373
6.16659
-0.00780821
6.1582
0.0487456
0.011887
-0.0109149
6.13248
0.0166946
-6.16104
0.0197597
0.0112374
0.0199021
0.0110595
-0.0391521
-0.0147385
-6.07974
6.04661
0.0227587
-0.00260804
0.00301997
-0.00264238
0.00301638
0.0241858
-0.0190689
-6.04522
6.05894
0.0296624
0.0517154
-0.0409634
0.0513548
-0.040805
-0.0458483
-0.0231805
-6.09917
6.13992
0.0361622
-0.0514091
-0.129461
-0.0518808
-0.129148
0.307964
-0.0250759
-6.17004
6.1808
0.0392827
-0.050271
-0.0536111
-0.0505496
-0.0532923
0.182662
-0.026388
-6.19385
6.20806
0.0413116
-0.0512756
-0.0503954
-0.0512298
-0.0503951
0.174214
-0.027349
-6.22216
6.23441
0.0428517
-0.0494318
-0.0492547
-0.0492299
-0.0494681
0.169706
-0.0279451
-6.24425
6.25147
0.043823
-0.0462469
-0.0462168
-0.046259
-0.0464754
0.1621
-0.0283789
-6.25787
6.26209
0.044544
-0.0437814
-0.0437577
-0.0435764
-0.0439904
0.154675
-0.028717
-6.26615
6.26831
0.0452393
-0.0418806
-0.0417892
-0.0414421
-0.0419995
0.148379
-6.27081
-0.028529
6.27298
-0.162477
0.0460599
25.0523
-0.672189
0.267983
-6.27428
-6.26707
-6.27458
-6.26752
25.028
-0.662864
0.265919
25.0018
-0.655181
0.263716
24.9745
-0.648037
0.261228
24.9478
-0.642737
0.258877
24.9212
-0.638453
0.256872
24.8954
-0.634753
0.254545
24.8702
-0.631771
0.252684
24.8452
-0.629386
0.251016
24.8212
-0.627646
0.24947
24.798
-0.626511
0.247723
24.7757
-0.6258
0.246413
24.7542
-0.625286
0.244606
24.7339
-0.625257
0.242504
24.7145
-0.6252
0.239991
24.697
-0.625249
0.236891
24.6812
-0.625469
0.233057
24.6675
-0.626322
0.228394
-0.62853
0.222583
25.002
0.00328916
0.00167354
24.9997
0.0221561
0.00342394
24.992
0.0421804
0.00545991
24.9799
0.062124
0.00800405
24.9624
0.0864139
0.0113242
24.9363
0.1192
0.0152861
24.8939
0.165592
0.0219202
24.8226
0.233081
0.030413
6.17256
0.337992
0.0427076
6.17174
6.17281
6.17186
-0.0061231
-0.0636505
6.14716
0.0856139
0.0095205
-0.00198014
-0.0190002
-1.52807
1.52284
0.0235644
0.00262431
-0.00286346
-0.0178946
-1.50467
1.49226
0.0294743
0.00366861
-0.0040733
-1.46995
0.053032
1.47999
-0.064264
0.00522402
-0.00513533
-1.52934
0.153752
1.54082
-0.166779
0.00664958
-0.00514057
-1.53725
0.05948
-0.0624212
1.53908
0.00623088
-1.54812
-0.00535731
0.0585253
-0.0619112
0.00597646
1.55088
-0.00526659
0.0558809
-1.55672
1.55823
-0.0580817
0.00595432
-0.00492702
0.0513263
-1.56132
1.56186
-0.0529208
0.00598023
-0.00454733
0.0482096
-1.56237
1.56235
-0.0497339
0.00608434
-0.00423371
0.0458048
-1.5614
1.56089
-0.0472999
0.00624008
-1.55415
-0.0141964
0.176392
6.15748
-0.167626
0.0317814
-1.53716
-1.5543
-1.53823
23.7973
-0.778584
0.127413
-6.09667
-5.7949
-6.09341
-5.78218
23.8134
-0.757211
0.13189
23.827
-0.747502
0.133057
23.8398
-0.738414
0.132048
23.8519
-0.730251
0.13009
23.8632
-0.722742
0.127792
23.8747
-0.715932
0.124628
23.8863
-0.709921
0.121435
23.8982
-0.704803
0.11807
23.9104
-0.700506
0.114576
23.9231
-0.696929
0.110755
23.9358
-0.694036
0.107342
23.9488
-0.691585
0.103627
23.9618
-0.689448
0.0998808
23.9748
-0.687474
0.0960432
23.9878
-0.685525
0.0920313
24.0005
-0.6835
0.0876422
24.0128
-0.681323
0.0824589
-0.678858
0.0755485
25.009
0.00198989
0.00128142
25.0098
0.0201861
0.00259312
25.0065
0.0435997
0.0040829
24.9997
0.0660237
0.00589501
24.9898
0.0923677
0.00818509
24.9762
0.127787
0.0106529
24.9568
0.177571
0.0150275
24.9265
0.253331
0.0200498
6.21393
0.377828
0.0268566
6.2222
6.214
6.22257
-0.00369114
-0.103583
6.19849
0.116942
0.00576294
-0.00113968
-0.0386568
-1.5421
1.53594
0.0444358
0.00150626
-0.00156179
-0.0806166
-1.50605
1.48765
0.0985503
0.00200943
-0.000180021
0.00458671
-0.074886
0.0751209
-0.00485126
0.000209581
0.00241035
-0.159829
0.00103011
-0.0109044
-0.00627783
0.173571
-1.0772
0.00463104
0.0391239
-0.0641834
-0.00558244
1.10322
0.00213664
0.0364448
-1.17073
1.18889
-0.0500248
-0.00670967
0.00121154
0.0431023
-1.24384
1.26172
-0.0552582
-0.00694185
0.000934402
0.0470905
-1.30815
1.32188
-0.0549896
-0.00677202
0.00114142
0.0503774
-1.3558
1.36648
-0.0558923
-0.00629873
-1.40799
0.0170779
0.19528
5.82826
-0.218831
-0.0331382
-1.49842
-1.38762
-1.49461
24.1424
-0.68206
-0.212215
-5.88533
-6.17301
-5.87774
-6.17548
24.1668
-0.655673
-0.209727
24.1882
-0.646564
-0.204822
24.2081
-0.639916
-0.199809
24.2267
-0.634401
-0.194731
24.2443
-0.630184
-0.189765
24.2616
-0.627115
-0.185191
24.2788
-0.624748
-0.181193
24.2959
-0.622884
-0.177841
24.3129
-0.621292
-0.175094
24.3299
-0.620008
-0.172867
24.3469
-0.619031
-0.170994
24.364
-0.618163
-0.169405
24.3808
-0.61701
-0.167925
24.3973
-0.61567
-0.166517
24.4133
-0.61408
-0.165211
24.4287
-0.612166
-0.164232
24.4432
-0.60944
-0.163911
-0.604832
-0.164827
25.0084
-0.00315143
0.000868869
25.0155
0.0122207
0.00172462
25.0223
0.0355575
0.00263697
25.0262
0.0602576
0.00366183
25.0256
0.0905398
0.00482651
25.0301
0.120465
0.00586787
25.0422
0.161693
0.00744059
25.0707
0.22048
0.00850444
6.27624
0.309141
0.00882057
6.28859
6.27775
6.2921
-0.000973105
-0.1085
6.28379
0.100452
0.00150381
-0.000175821
-0.0438182
-1.57794
1.57964
0.0420913
0.000214623
9.58703e-05
-0.0804473
-1.59994
1.61634
0.0640941
-0.000121523
0.000934194
-0.0261954
-1.71126
1.74888
0.0580594
0.000280792
-0.0217126
-0.027061
-0.0218979
0.0017601
0.11042
-1.70895
1.67831
-0.0789768
-0.00252785
0.104991
-1.60888
0.00350225
1.59803
-0.0931954
-0.0044084
0.00485956
0.0742441
-1.58346
-0.00582336
1.58135
-0.0711502
0.00549583
0.0541723
-1.57807
1.57653
-0.0514109
-0.00671576
0.00579943
0.0557956
-1.5756
1.57413
-0.0528615
-0.00726491
0.00596606
0.0500187
-1.57325
1.57259
-0.0476985
-0.00762232
0.00601099
0.0465629
-1.56977
1.57007
-0.0450692
-0.00780493
-1.57018
0.024934
0.178866
6.27503
-0.155531
-0.0414792
-1.57023
-1.5704
-1.571
25.0868
-0.521212
-0.253862
-6.27742
-6.27044
-6.28235
-6.27556
25.0851
-0.512948
-0.25191
25.0804
-0.502069
-0.249176
25.0756
-0.495951
-0.247284
25.0712
-0.491319
-0.245857
25.0679
-0.488778
-0.244771
25.0652
-0.486966
-0.244112
25.0632
-0.485786
-0.243927
25.0618
-0.484943
-0.244198
25.0608
-0.483984
-0.244863
25.0602
-0.483224
-0.245842
25.0603
-0.482646
-0.247264
25.0604
-0.481844
-0.248325
25.0602
-0.480261
-0.249646
25.0607
-0.479216
-0.25094
25.0613
-0.477422
-0.252287
25.0622
-0.475219
-0.253785
25.0633
-0.47206
-0.255557
-0.468471
-0.257468
25.0071
-0.00779724
0.000470973
25.0173
0.00152185
0.000900437
25.0315
0.020616
0.00126505
25.04
0.0508754
0.00154248
25.0577
0.0718377
0.00163841
25.0813
0.0960053
0.00136592
25.1192
0.123301
0.000378241
25.1846
0.155789
-0.00199547
6.32969
0.196199
-0.00691399
6.3189
6.33411
6.31781
-0.0852929
0.00139395
6.34797
0.0677663
-0.00216103
-0.0326657
0.00314756
6.42115
0.086625
-0.00465425
-0.0307134
-0.032866
-0.0298141
-6.38027
-0.0289306
0.00623775
6.4917
0.0796227
-0.00930327
-0.0282982
-0.0278782
-0.030424
-6.45266
-0.00872949
0.0106535
-6.53926
6.49791
-0.0604037
-0.0166874
0.0634061
-0.00972724
0.0630302
0.0354531
0.0166892
-6.49055
6.47242
-0.146186
-0.0257957
0.0518397
0.034994
0.0513377
0.0584892
-6.44915
0.0221994
6.40578
-0.184739
-0.0337966
0.0579304
0.0619948
0.0614167
0.0563104
0.0259466
-6.36579
6.33787
-0.178609
-0.0393251
0.0543471
0.0555781
0.0536623
0.0458984
0.0283754
-6.32398
6.31683
-0.1594
-0.0429181
0.045141
0.0453262
0.0446705
0.0443128
0.0298218
-6.31267
6.30491
-0.153938
-0.0450588
0.0447009
0.0437677
0.0441323
0.0432669
0.0304968
-6.29649
6.28784
-0.142624
-0.046161
0.0407209
0.0427623
0.04021
0.038155
0.0307346
-6.28074
6.27327
-0.125027
-0.046614
0.0351713
0.0386851
0.036401
0.135646
-6.27211
0.0307502
6.27271
-0.120287
-0.0466964
25.0765
-0.378901
-0.258954
-6.27141
-6.26935
-6.27171
-6.26895
25.0703
-0.370816
-0.256709
25.0665
-0.36356
-0.254789
25.0632
-0.358561
-0.253684
25.061
-0.355544
-0.252824
25.0587
-0.353453
-0.252114
25.0571
-0.352621
-0.251577
25.056
-0.352271
-0.251217
25.0548
-0.351686
-0.251017
25.0544
-0.351688
-0.250946
25.054
-0.351147
-0.250941