/*--------------------------------*- C++ -*----------------------------------*\
| =========                 |                                                 |
| \\      /  F ield         | OpenFOAM: The Open Source CFD Toolbox           |
|  \\    /   O peration     | Version:  2306                                  |
|   \\  /    A nd           | Website:  www.openfoam.com                      |
|    \\/     M anipulation  |                                                 |
\*---------------------------------------------------------------------------*/
FoamFile
{
    version     2.0;
    format      ascii;
    arch        "LSB;label=32;scalar=64";
    class       volVectorField;
    location    "0.5";
    object      U;
}
// * * * * * * * * * * * * * * * * * * * * * * * * * * * * * * * * * * * * * //

dimensions      [0 1 -1 0 0 0 0];

internalField   nonuniform List<vector> 
111542
(
(99.9932 0.00542006 0.00291863)
(99.9705 0.0109615 0.00611513)
(99.9286 0.0166148 0.0096741)
(99.8664 0.0225513 0.0140324)
(99.7825 0.0285314 0.0195484)
(99.6749 0.0337885 0.0266498)
(99.5428 0.0364639 0.0355853)
(99.3884 0.0335793 0.0468368)
(99.2213 0.0204725 0.0609001)
(99.0615 -0.00930505 0.0778132)
(98.9424 -0.0614267 0.0971441)
(98.9047 -0.133542 0.1181)
(98.9742 -0.20741 0.139811)
(99.1413 -0.263207 0.160219)
(99.3606 -0.290243 0.177639)
(99.5834 -0.298255 0.191563)
(99.7828 -0.296298 0.201929)
(99.9518 -0.289053 0.209393)
(100.091 -0.279442 0.214618)
(100.203 -0.269496 0.218339)
(100.292 -0.26058 0.220842)
(100.36 -0.253092 0.222655)
(100.411 -0.246949 0.224357)
(100.45 -0.242607 0.225953)
(100.48 -0.239891 0.227589)
(100.503 -0.238326 0.229507)
(100.52 -0.237973 0.231481)
(100.532 -0.238617 0.233504)
(100.541 -0.239841 0.235677)
(100.546 -0.241406 0.237923)
(100.55 -0.243161 0.240115)
(100.552 -0.245044 0.242093)
(100.554 -0.246816 0.243918)
(100.555 -0.248399 0.245528)
(100.556 -0.249789 0.246832)
(100.558 -0.251022 0.247746)
(100.562 -0.252193 0.248156)
(100.567 -0.253213 0.248183)
(100.575 -0.254161 0.247853)
(100.59 -0.255307 0.24724)
(99.9935 0.0161462 0.00286077)
(99.9712 0.0326024 0.00591866)
(99.9298 0.0497959 0.00943241)
(99.868 0.0681562 0.0137356)
(99.7835 0.0871416 0.0191792)
(99.6726 0.104706 0.0261805)
(99.5322 0.11595 0.035176)
(99.362 0.112048 0.0466763)
(99.1679 0.0783169 0.061154)
(98.969 -0.00641128 0.0787857)
(98.8068 -0.159588 0.0993597)
(98.7476 -0.374601 0.121273)
(98.8356 -0.598609 0.144662)
(99.0486 -0.759225 0.166818)
(99.3132 -0.837721 0.185448)
(99.5644 -0.864319 0.199876)
(99.7787 -0.861551 0.210483)
(99.9551 -0.842754 0.218056)
(100.097 -0.817076 0.223371)
(100.209 -0.78976 0.227042)
(100.295 -0.764039 0.229481)
(100.36 -0.742772 0.231307)
(100.409 -0.726491 0.232949)
(100.445 -0.714861 0.234542)
(100.472 -0.705937 0.236187)
(100.493 -0.698619 0.238006)
(100.508 -0.693343 0.24001)
(100.519 -0.6902 0.242187)
(100.527 -0.688747 0.244511)
(100.532 -0.688619 0.246905)
(100.535 -0.68955 0.249274)
(100.537 -0.691329 0.251521)
(100.538 -0.693538 0.253586)
(100.539 -0.695953 0.255393)
(100.539 -0.698477 0.256853)
(100.541 -0.701089 0.257892)
(100.544 -0.703851 0.25845)
(100.548 -0.706626 0.25853)
(100.556 -0.709465 0.258162)
(100.568 -0.712529 0.257501)
(99.9938 0.0264793 0.00271267)
(99.9726 0.0535794 0.00559746)
(99.9329 0.0826606 0.00894022)
(99.8726 0.114662 0.0130584)
(99.7878 0.149396 0.0183129)
(99.6724 0.184597 0.0251601)
(99.5186 0.214003 0.0341453)
(99.3189 0.223992 0.045906)
(99.0708 0.187862 0.0611173)
(98.7913 0.0569852 0.0803195)
(98.5406 -0.278068 0.103759)
(98.4304 -0.740617 0.130608)
(98.5566 -1.15823 0.155702)
(98.8646 -1.3951 0.179396)
(99.2114 -1.4886 0.198727)
(99.5119 -1.5129 0.213156)
(99.7542 -1.4934 0.223417)
(99.9443 -1.45263 0.230516)
(100.091 -1.40501 0.235366)
(100.202 -1.35664 0.238473)
(100.286 -1.31213 0.239789)
(100.345 -1.27188 0.240493)
(100.388 -1.24732 0.241435)
(100.421 -1.2363 0.242655)
(100.448 -1.23074 0.244034)
(100.468 -1.22708 0.245583)
(100.481 -1.22508 0.247362)
(100.489 -1.22474 0.249389)
(100.494 -1.2257 0.251651)
(100.496 -1.22761 0.254099)
(100.496 -1.2302 0.256651)
(100.494 -1.23323 0.259203)
(100.491 -1.2364 0.261635)
(100.488 -1.23953 0.263829)
(100.485 -1.24248 0.26566)
(100.482 -1.24525 0.267019)
(100.481 -1.24791 0.267816)
(100.481 -1.25051 0.268006)
(100.484 -1.25306 0.267632)
(100.491 -1.25538 0.266957)
(99.9945 0.0359533 0.00248227)
(99.9754 0.073138 0.00511406)
(99.9393 0.114037 0.00817237)
(99.8832 0.160794 0.0119696)
(99.8017 0.214699 0.0168687)
(99.6852 0.275328 0.0233456)
(99.5193 0.338539 0.0320238)
(99.2832 0.391855 0.0436849)
(98.9481 0.405658 0.0592712)
(98.45 0.205633 0.0798562)
(98.1928 0.0267679 0.086286)
(97.8479 -0.628178 0.101024)
(97.9156 -1.42847 0.113951)
(98.3974 -1.93862 0.124768)
(98.9004 -2.0824 0.13527)
(99.2924 -2.10853 0.142532)
(99.6062 -2.06749 0.147396)
(99.8424 -1.99266 0.150397)
(100.016 -1.91172 0.152169)
(100.147 -1.83834 0.153049)
(100.318 -1.88724 0.241475)
(100.363 -1.80923 0.239233)
(100.38 -1.75259 0.23776)
(100.392 -1.7175 0.23773)
(100.405 -1.69452 0.239003)
(100.412 -1.68027 0.241269)
(100.412 -1.67327 0.244231)
(100.406 -1.67186 0.247655)
(100.394 -1.67449 0.251359)
(100.378 -1.68002 0.255176)
(100.359 -1.68748 0.258939)
(100.337 -1.69603 0.262488)
(100.313 -1.70496 0.265669)
(100.287 -1.71369 0.268341)
(100.261 -1.72182 0.270388)
(100.235 -1.72917 0.271711)
(100.21 -1.73576 0.272229)
(100.186 -1.74174 0.271904)
(100.166 -1.74722 0.270794)
(100.144 -1.7514 0.269286)
(99.9955 0.0438339 0.0021708)
(99.9801 0.0896837 0.00446192)
(99.9504 0.141376 0.00712102)
(99.9032 0.202814 0.0104339)
(99.8321 0.277915 0.0147348)
(99.7256 0.370509 0.0204638)
(99.564 0.483526 0.0282236)
(99.3148 0.615803 0.0387933)
(98.8729 0.754231 0.0531635)
(98.529 0.762346 0.0583207)
(97.7175 0.375141 0.070974)
(96.915 -0.686425 0.0866791)
(97.0127 -2.3322 0.0983699)
(98.1441 -2.92172 0.104502)
(98.8661 -2.9316 0.111577)
(99.3278 -2.88272 0.116789)
(99.6871 -2.75981 0.121287)
(99.9274 -2.61879 0.124919)
(100.086 -2.48912 0.12747)
(100.189 -2.38458 0.128659)
(100.264 -2.3289 0.131042)
(100.225 -2.44175 0.199646)
(100.119 -2.42674 0.18682)
(100.017 -2.39471 0.177528)
(99.9235 -2.35793 0.172981)
(99.8309 -2.32612 0.172918)
(99.7368 -2.30121 0.17628)
(99.6418 -2.28251 0.181874)
(99.5466 -2.26928 0.188616)
(99.4516 -2.26086 0.195596)
(99.3572 -2.25639 0.202127)
(99.2643 -2.25483 0.207758)
(99.1739 -2.25513 0.212249)
(99.0867 -2.25632 0.215521)
(99.0036 -2.25763 0.217611)
(98.9255 -2.25857 0.218599)
(98.8531 -2.25901 0.218549)
(98.7873 -2.25925 0.217502)
(98.7298 -2.26028 0.215516)
(98.6755 -2.26444 0.212878)
(99.9971 0.0491932 0.00178598)
(99.9868 0.101174 0.00365594)
(99.9668 0.161058 0.00580522)
(99.9343 0.234614 0.00846326)
(99.8837 0.328852 0.0118914)
(99.8046 0.453252 0.0164223)
(99.6778 0.621662 0.0225008)
(99.4668 0.854629 0.0306729)
(99.0477 1.18396 0.0415848)
(98.6386 1.34723 0.0458272)
(97.6853 1.49182 0.0437063)
(95.5788 0.728065 0.0398635)
(94.3866 -3.40922 0.0525715)
(98.227 -4.66448 0.0340251)
(98.7463 -3.73764 0.0279289)
(99.2844 -3.68232 0.0434999)
(99.6828 -3.4784 0.0379896)
(99.8527 -3.24773 0.0232059)
(99.8876 -3.0524 0.00979221)
(99.837 -2.87549 0.00357816)
(98.7513 -2.63469 0.119267)
(95.3833 -2.17688 0.0819122)
(95.428 -2.24115 0.0776704)
(95.4894 -2.26964 0.0746459)
(95.537 -2.28361 0.0741558)
(95.5741 -2.29648 0.075834)
(95.6071 -2.31142 0.0784806)
(95.6385 -2.32852 0.0809933)
(95.6683 -2.34755 0.0826234)
(95.6967 -2.36807 0.0829603)
(95.7243 -2.38932 0.0818627)
(95.7515 -2.41032 0.0793918)
(95.779 -2.43012 0.0757297)
(95.8074 -2.44786 0.0711232)
(95.8373 -2.4629 0.0658197)
(95.8691 -2.4749 0.0600174)
(95.9032 -2.48383 0.0538238)
(95.9397 -2.49014 0.0472406)
(95.978 -2.49497 0.0401989)
(96.0243 -2.50112 0.0328308)
(99.9989 0.0511385 0.00136477)
(99.9951 0.105582 0.00275014)
(99.9876 0.169272 0.00430327)
(99.9749 0.249234 0.00617595)
(99.9546 0.354663 0.00851434)
(99.9217 0.499322 0.0114806)
(99.868 0.705466 0.0152427)
(99.7792 1.01191 0.0199054)
(99.6077 1.49234 0.0253768)
(99.3402 1.89435 0.0276948)
(98.6215 2.83431 0.0253624)
(95.4757 5.83591 0.0224403)
(77.1209 -4.284 0.0344136)
(102.796 -10.2911 0.0231395)
(53.7871 -4.30838 -0.0767456)
(73.6685 -3.94336 0.301244)
(78.3687 -3.4346 0.154341)
(81.6353 -3.26416 0.0938955)
(83.9027 -3.11337 0.079672)
(85.5381 -2.97191 0.0650833)
(92.5367 -3.56495 -0.0679337)
(95.959 -3.12486 -0.123399)
(96.097 -3.00166 -0.117442)
(96.2461 -2.91396 -0.11594)
(96.3703 -2.85016 -0.118562)
(96.4775 -2.80199 -0.123951)
(96.5778 -2.76577 -0.130869)
(96.6748 -2.73918 -0.138437)
(96.7692 -2.72015 -0.14601)
(96.8612 -2.70672 -0.15311)
(96.951 -2.69715 -0.159438)
(97.0385 -2.68995 -0.164874)
(97.1232 -2.68389 -0.169455)
(97.2048 -2.67802 -0.173324)
(97.2826 -2.67164 -0.176693)
(97.3564 -2.66426 -0.179793)
(97.426 -2.65558 -0.182877)
(97.4915 -2.6453 -0.18618)
(97.5532 -2.6329 -0.189933)
(97.6243 -2.61667 -0.194273)
(100.001 0.0491515 0.000953356)
(100.004 0.101607 0.00183591)
(100.01 0.163445 0.00275921)
(100.02 0.241791 0.00378693)
(100.034 0.346009 0.00493578)
(100.055 0.489904 0.00616948)
(100.089 0.695056 0.00734865)
(100.152 0.997366 0.00810311)
(100.298 1.459 0.00760683)
(100.348 1.87058 0.00759015)
(100.624 2.85703 0.00440904)
(102.434 5.3874 -0.000216451)
(111.089 3.96246 -0.0185238)
(109.006 -6.50945 0.0558069)
(102.795 -6.61824 -0.00926117)
(101.111 -4.84999 -0.0312515)
(100.658 -3.86232 -0.0313177)
(100.488 -3.319 -0.0280571)
(100.41 -3.00166 -0.0275404)
(100.351 -2.81465 -0.0305856)
(100.265 -2.60854 -0.118723)
(100.3 -2.20558 -0.213054)
(100.286 -2.10524 -0.205001)
(100.275 -2.04847 -0.198042)
(100.266 -2.01864 -0.193853)
(100.255 -2.00225 -0.192591)
(100.245 -1.99402 -0.193799)
(100.236 -1.99183 -0.196967)
(100.228 -1.99398 -0.201572)
(100.221 -1.99888 -0.207082)
(100.214 -2.00519 -0.213008)
(100.209 -2.01186 -0.218957)
(100.205 -2.01804 -0.224655)
(100.202 -2.02312 -0.229937)
(100.2 -2.02665 -0.234742)
(100.2 -2.02834 -0.239099)
(100.201 -2.02799 -0.243116)
(100.203 -2.02532 -0.246943)
(100.209 -2.0197 -0.250714)
(100.22 -2.00952 -0.254302)
(100.003 0.0430527 0.000474232)
(100.013 0.0890566 0.0008805)
(100.031 0.14333 0.00121933)
(100.061 0.21197 0.00145309)
(100.106 0.302636 0.00148462)
(100.174 0.425613 0.00111333)
(100.278 0.595143 -4.73512e-05)
(100.446 0.830675 -0.00269599)
(100.764 1.15644 -0.00808691)
(100.99 1.39582 -0.0100259)
(101.843 1.85149 -0.0166101)
(103.452 1.75669 -0.0279866)
(105.224 -0.237236 -0.0404072)
(104.764 -2.80377 -0.0182426)
(102.968 -3.51928 -0.0388806)
(101.748 -3.2986 -0.0575469)
(101.12 -2.94086 -0.0693072)
(100.788 -2.63669 -0.076531)
(100.599 -2.4075 -0.0810347)
(100.477 -2.23627 -0.0839037)
(100.391 -2.09998 -0.0863422)
(100.302 -1.82312 -0.234503)
(100.273 -1.78796 -0.231925)
(100.253 -1.76435 -0.230117)
(100.24 -1.75045 -0.229316)
(100.23 -1.74214 -0.229364)
(100.222 -1.73688 -0.230036)
(100.215 -1.73365 -0.231194)
(100.21 -1.73172 -0.232745)
(100.205 -1.73038 -0.234585)
(100.202 -1.72902 -0.236594)
(100.199 -1.7272 -0.238649)
(100.197 -1.72461 -0.240632)
(100.197 -1.72105 -0.242446)
(100.197 -1.71635 -0.244038)
(100.199 -1.71043 -0.245401)
(100.203 -1.7032 -0.246585)
(100.208 -1.69456 -0.247688)
(100.218 -1.6845 -0.248854)
(100.237 -1.67339 -0.250275)
(100.004 0.0333597 0.000123973)
(100.02 0.069045 0.000159712)
(100.049 0.111003 -2.38653e-06)
(100.094 0.163651 -0.000448565)
(100.162 0.232108 -0.00134514)
(100.262 0.322271 -0.00300617)
(100.408 0.440418 -0.00595126)
(100.627 0.590925 -0.0110133)
(100.962 0.769783 -0.0195134)
(101.448 0.852304 -0.0330494)
(102.087 0.752808 -0.0530867)
(102.759 0.223909 -0.0805892)
(103.112 -0.761499 -0.111962)
(102.86 -1.58766 -0.141537)
(102.215 -1.8893 -0.172415)
(101.585 -1.88894 -0.197309)
(101.141 -1.79698 -0.213581)
(100.856 -1.68628 -0.22328)
(100.669 -1.5815 -0.228877)
(100.539 -1.48906 -0.231867)
(100.45 -1.40946 -0.233053)
(100.392 -1.33943 -0.232819)
(100.352 -1.2849 -0.232386)
(100.323 -1.24238 -0.232211)
(100.301 -1.21054 -0.232355)
(100.283 -1.18744 -0.232855)
(100.269 -1.17088 -0.233743)
(100.257 -1.15918 -0.235004)
(100.246 -1.15105 -0.236581)
(100.237 -1.14543 -0.238382)
(100.23 -1.14142 -0.240308)
(100.224 -1.1383 -0.242257)
(100.219 -1.13554 -0.244143)
(100.216 -1.1327 -0.2459)
(100.215 -1.12945 -0.247499)
(100.215 -1.1256 -0.248944)
(100.217 -1.12102 -0.250275)
(100.222 -1.11565 -0.251572)
(100.229 -1.10957 -0.252949)
(100.24 -1.10311 -0.254557)
(100.005 0.0210855 -0.000158571)
(100.024 0.0435392 -0.00044229)
(100.06 0.0699274 -0.000976408)
(100.117 0.102639 -0.00189367)
(100.199 0.144597 -0.00343447)
(100.316 0.198236 -0.00594887)
(100.48 0.26501 -0.00998964)
(100.708 0.342357 -0.0163175)
(101.017 0.417216 -0.0259677)
(101.417 0.450117 -0.0401061)
(101.88 0.384954 -0.0598116)
(102.306 0.147664 -0.0856414)
(102.523 -0.271192 -0.115505)
(102.403 -0.69725 -0.14522)
(102.013 -0.937761 -0.172714)
(101.556 -0.993694 -0.194647)
(101.18 -0.961464 -0.210034)
(100.912 -0.904027 -0.219748)
(100.722 -0.845056 -0.225581)
(100.583 -0.791419 -0.228875)
(100.48 -0.745966 -0.230503)
(100.406 -0.711665 -0.231096)
(100.351 -0.688696 -0.231317)
(100.311 -0.674535 -0.231521)
(100.28 -0.666882 -0.231872)
(100.256 -0.664047 -0.232457)
(100.238 -0.664479 -0.233307)
(100.224 -0.666914 -0.234391)
(100.213 -0.670454 -0.235636)
(100.204 -0.674461 -0.236956)
(100.197 -0.67844 -0.238262)
(100.193 -0.682047 -0.239472)
(100.19 -0.685043 -0.240521)
(100.188 -0.687327 -0.241366)
(100.189 -0.688562 -0.242027)
(100.191 -0.688874 -0.2425)
(100.194 -0.688305 -0.24283)
(100.2 -0.68689 -0.243112)
(100.209 -0.684721 -0.243498)
(100.227 -0.681839 -0.244268)
(100.006 0.00720826 -0.000331521)
(100.027 0.0148466 -0.000742771)
(100.066 0.0238522 -0.00150046)
(100.127 0.0348771 -0.00260915)
(100.216 0.0489655 -0.00449924)
(100.34 0.0666743 -0.00745471)
(100.51 0.0880029 -0.0120647)
(100.736 0.111444 -0.0189767)
(101.027 0.131837 -0.0292274)
(101.375 0.136498 -0.043498)
(101.746 0.105532 -0.0624693)
(102.063 0.0185834 -0.0861837)
(102.224 -0.12039 -0.113292)
(102.154 -0.26389 -0.141017)
(101.879 -0.354609 -0.165909)
(101.519 -0.382057 -0.186176)
(101.187 -0.375156 -0.20104)
(100.93 -0.358408 -0.210726)
(100.739 -0.340985 -0.216683)
(100.596 -0.325185 -0.220152)
(100.489 -0.311782 -0.222063)
(100.41 -0.301273 -0.223051)
(100.352 -0.293122 -0.223603)
(100.31 -0.286536 -0.224001)
(100.278 -0.280772 -0.224562)
(100.255 -0.27551 -0.225375)
(100.236 -0.270551 -0.226434)
(100.222 -0.265764 -0.227702)
(100.21 -0.261092 -0.229109)
(100.201 -0.256523 -0.230573)
(100.194 -0.252054 -0.232005)
(100.188 -0.247683 -0.233324)
(100.185 -0.243419 -0.234453)
(100.183 -0.239303 -0.235305)
(100.183 -0.23513 -0.236075)
(100.184 -0.231024 -0.236654)
(100.187 -0.227034 -0.237061)
(100.192 -0.223194 -0.237397)
(100.2 -0.219657 -0.237821)
(100.213 -0.216959 -0.238639)
(99.9936 0.00536265 0.00840536)
(99.972 0.0107661 0.0174979)
(99.932 0.016376 0.0278667)
(99.8729 0.0222606 0.0405721)
(99.793 0.0281712 0.0566309)
(99.6904 0.0333345 0.0772243)
(99.5642 0.0360745 0.103384)
(99.4168 0.0334407 0.136482)
(99.2571 0.0207513 0.177764)
(99.1045 -0.00832322 0.2275)
(98.9912 -0.0592785 0.284917)
(98.9571 -0.130379 0.347618)
(99.0271 -0.202211 0.411731)
(99.1912 -0.255906 0.47178)
(99.4061 -0.281649 0.523044)
(99.624 -0.289078 0.563908)
(99.8187 -0.286838 0.594536)
(99.9831 -0.279456 0.616645)
(100.118 -0.269736 0.632145)
(100.225 -0.259857 0.642947)
(100.308 -0.250936 0.650286)
(100.371 -0.243376 0.655624)
(100.417 -0.23724 0.660285)
(100.452 -0.232852 0.66458)
(100.477 -0.230074 0.668747)
(100.496 -0.228564 0.67306)
(100.51 -0.228136 0.677249)
(100.521 -0.228585 0.681326)
(100.528 -0.229631 0.685413)
(100.534 -0.231026 0.68938)
(100.538 -0.232585 0.69302)
(100.541 -0.234182 0.696107)
(100.544 -0.235704 0.698685)
(100.547 -0.237092 0.700654)
(100.551 -0.238324 0.701873)
(100.554 -0.239432 0.702218)
(100.559 -0.240454 0.701551)
(100.566 -0.241419 0.700003)
(100.575 -0.242404 0.697588)
(100.59 -0.24359 0.694346)
(99.9939 0.0159416 0.00821571)
(99.9727 0.0320885 0.0170162)
(99.9333 0.04907 0.0271953)
(99.8744 0.0671966 0.0397023)
(99.7937 0.0859305 0.0555641)
(99.6878 0.103264 0.0760089)
(99.5534 0.114583 0.102393)
(99.3902 0.111216 0.136271)
(99.2039 0.0786461 0.179089)
(99.0125 -0.00381898 0.231633)
(98.8557 -0.153151 0.293419)
(98.8002 -0.361972 0.361957)
(98.8885 -0.581407 0.432684)
(99.0969 -0.739608 0.498398)
(99.355 -0.816092 0.552992)
(99.6001 -0.842092 0.595194)
(99.8091 -0.83936 0.62623)
(99.9806 -0.82086 0.64835)
(100.118 -0.795507 0.663786)
(100.225 -0.768721 0.674329)
(100.306 -0.743961 0.681359)
(100.367 -0.72356 0.68676)
(100.412 -0.707784 0.691607)
(100.445 -0.696279 0.696036)
(100.469 -0.687391 0.700095)
(100.488 -0.680255 0.704006)
(100.501 -0.675039 0.707901)
(100.511 -0.671814 0.711847)
(100.518 -0.670237 0.715826)
(100.524 -0.66991 0.719717)
(100.527 -0.67051 0.723355)
(100.53 -0.671768 0.72658)
(100.532 -0.673421 0.72929)
(100.534 -0.675316 0.73136)
(100.536 -0.677386 0.732656)
(100.539 -0.679617 0.73306)
(100.542 -0.682068 0.732476)
(100.547 -0.684764 0.730886)
(100.554 -0.687719 0.728299)
(100.567 -0.690921 0.724849)
(99.9942 0.0261025 0.00779035)
(99.9741 0.0527805 0.0161173)
(99.9362 0.0814129 0.0258074)
(99.8787 0.11292 0.0377979)
(99.7976 0.147125 0.0531621)
(99.687 0.181843 0.0732539)
(99.5394 0.210988 0.0997361)
(99.3472 0.221216 0.134595)
(99.1076 0.186266 0.179955)
(98.8373 0.058231 0.237583)
(98.5947 -0.270002 0.307894)
(98.4869 -0.723443 0.387762)
(98.6083 -1.13295 0.46865)
(98.9081 -1.36664 0.542207)
(99.2463 -1.45953 0.600591)
(99.5397 -1.48419 0.643802)
(99.7765 -1.46531 0.674444)
(99.9617 -1.42503 0.695576)
(100.103 -1.37757 0.709914)
(100.21 -1.32941 0.719215)
(100.288 -1.28644 0.724099)
(100.345 -1.24894 0.728098)
(100.387 -1.22612 0.73283)
(100.418 -1.21555 0.737528)
(100.443 -1.20959 0.741492)
(100.462 -1.20522 0.744797)
(100.476 -1.20247 0.747779)
(100.484 -1.20143 0.750656)
(100.489 -1.20176 0.7535)
(100.492 -1.20305 0.756288)
(100.492 -1.20495 0.758923)
(100.491 -1.20723 0.761268)
(100.489 -1.20967 0.763167)
(100.486 -1.21214 0.764447)
(100.483 -1.21463 0.76493)
(100.48 -1.21722 0.764441)
(100.478 -1.22004 0.762823)
(100.477 -1.22323 0.759978)
(100.479 -1.2268 0.755941)
(100.486 -1.23031 0.751118)
(99.9949 0.0354143 0.00713155)
(99.9767 0.0720108 0.0147446)
(99.9423 0.112235 0.0236358)
(99.8888 0.158201 0.0347276)
(99.8107 0.211176 0.049112)
(99.6989 0.270743 0.0682254)
(99.5391 0.332821 0.0939954)
(99.3109 0.385096 0.128912)
(98.9855 0.398255 0.176053)
(98.4995 0.200746 0.238919)
(98.2428 0.0185241 0.270369)
(97.9025 -0.640118 0.342789)
(97.9688 -1.4371 0.419437)
(98.442 -1.95313 0.489681)
(98.9333 -2.10319 0.543764)
(99.3181 -2.13457 0.582763)
(99.627 -2.09659 0.609811)
(99.8594 -2.02313 0.627587)
(100.03 -1.94205 0.639295)
(100.157 -1.86766 0.647059)
(100.312 -1.90223 0.763528)
(100.356 -1.82938 0.76661)
(100.374 -1.77835 0.769908)
(100.388 -1.74823 0.773546)
(100.402 -1.72865 0.7772)
(100.409 -1.7162 0.780791)
(100.408 -1.70968 0.784401)
(100.4 -1.70765 0.788104)
(100.387 -1.70873 0.791892)
(100.37 -1.71189 0.795654)
(100.349 -1.71638 0.799195)
(100.324 -1.72162 0.802249)
(100.298 -1.72718 0.804521)
(100.27 -1.73279 0.805703)
(100.242 -1.7383 0.805509)
(100.213 -1.74375 0.803683)
(100.184 -1.7493 0.800004)
(100.158 -1.75517 0.794319)
(100.134 -1.7615 0.786623)
(100.112 -1.76735 0.777362)
(99.9959 0.0431414 0.00624116)
(99.9812 0.0882361 0.0128838)
(99.953 0.139029 0.0206405)
(99.908 0.199345 0.0303548)
(99.8399 0.273002 0.0430428)
(99.7375 0.36371 0.0600687)
(99.5814 0.474242 0.0833409)
(99.3394 0.603231 0.115433)
(98.9074 0.737288 0.159682)
(98.5661 0.740129 0.184566)
(97.7642 0.350959 0.246834)
(96.9675 -0.707288 0.325897)
(97.0576 -2.3415 0.41421)
(98.164 -2.94699 0.484652)
(98.8686 -2.97625 0.525757)
(99.3265 -2.93857 0.552969)
(99.6838 -2.82335 0.569803)
(99.9226 -2.68748 0.579152)
(100.079 -2.56131 0.585994)
(100.181 -2.45996 0.592513)
(100.251 -2.4076 0.595632)
(100.165 -2.56498 0.709457)
(100.046 -2.54424 0.710805)
(99.9348 -2.51067 0.705958)
(99.8347 -2.47447 0.699374)
(99.7363 -2.44397 0.693022)
(99.6373 -2.42025 0.687591)
(99.5388 -2.40194 0.68341)
(99.4415 -2.38785 0.680535)
(99.3458 -2.37715 0.678724)
(99.2522 -2.36919 0.677492)
(99.1611 -2.36335 0.676219)
(99.0731 -2.35915 0.674253)
(98.9885 -2.35617 0.671014)
(98.9079 -2.35414 0.666039)
(98.8316 -2.35288 0.659008)
(98.7604 -2.35238 0.649675)
(98.695 -2.35298 0.637862)
(98.6375 -2.35565 0.623486)
(98.5842 -2.36264 0.607032)
(99.9974 0.0483905 0.00514655)
(99.9877 0.0994719 0.0105899)
(99.9688 0.158259 0.0168906)
(99.9379 0.23039 0.0247286)
(99.8896 0.322689 0.034909)
(99.8136 0.444379 0.048494)
(99.6908 0.608894 0.0669397)
(99.4849 0.836156 0.0921865)
(99.0724 1.15696 0.126678)
(98.6653 1.31631 0.147035)
(97.716 1.45498 0.174514)
(95.6187 0.687493 0.226537)
(94.4165 -3.43486 0.31677)
(98.22 -4.70616 0.379928)
(98.7406 -3.84425 0.371523)
(99.2924 -3.74846 0.370243)
(99.6834 -3.53044 0.379449)
(99.8479 -3.30468 0.384578)
(99.8659 -3.124 0.377584)
(99.7786 -2.97373 0.356248)
(98.5847 -2.80115 0.345636)
(95.0147 -2.59905 0.327467)
(95.087 -2.67362 0.351319)
(95.1704 -2.70126 0.362508)
(95.2385 -2.70554 0.368075)
(95.2947 -2.70147 0.371154)
(95.3465 -2.69383 0.372557)
(95.3975 -2.68465 0.372553)
(95.4484 -2.67559 0.371291)
(95.4997 -2.66786 0.368812)
(95.5516 -2.66207 0.365083)
(95.6043 -2.65832 0.360093)
(95.6578 -2.65635 0.353819)
(95.7118 -2.65571 0.346313)
(95.7663 -2.65582 0.337661)
(95.8208 -2.65611 0.327909)
(95.875 -2.65613 0.316946)
(95.9286 -2.6558 0.304377)
(95.9808 -2.6558 0.289323)
(96.0423 -2.65872 0.27002)
(99.9992 0.0502927 0.0039256)
(99.9957 0.103756 0.00797852)
(99.9889 0.166226 0.0125663)
(99.9772 0.244568 0.0181276)
(99.958 0.347733 0.0251246)
(99.9267 0.489129 0.0341012)
(99.8749 0.690434 0.0456945)
(99.7881 0.989606 0.0604631)
(99.618 1.45888 0.0784509)
(99.351 1.85498 0.0892161)
(98.6336 2.7833 0.10101)
(95.495 5.75786 0.125118)
(77.2623 -4.45803 0.232161)
(41.1812 0.856813 -1.54085)
(69.0137 -2.84936 -0.82589)
(74.9748 -2.65122 -0.625282)
(80.0523 -2.89965 -0.426721)
(84.0361 -3.16966 -0.26333)
(86.9866 -3.37389 -0.155239)
(92.8464 -3.68617 -0.37566)
(96.4463 -3.40571 -0.556892)
(96.5633 -3.2941 -0.551833)
(96.6831 -3.21035 -0.539452)
(96.775 -3.14527 -0.524788)
(96.8507 -3.09146 -0.509876)
(96.9217 -3.04563 -0.496032)
(96.9919 -3.00628 -0.484271)
(97.062 -2.9725 -0.475023)
(97.1319 -2.94352 -0.468127)
(97.2019 -2.91864 -0.463018)
(97.2719 -2.89721 -0.458937)
(97.3417 -2.87856 -0.455115)
(97.4112 -2.86202 -0.450941)
(97.4798 -2.84697 -0.446065)
(97.5471 -2.8328 -0.440479)
(97.6126 -2.81895 -0.434611)
(97.6759 -2.80477 -0.429325)
(97.7365 -2.78931 -0.426012)
(97.8074 -2.77047 -0.426517)
(100.001 0.0482454 0.00267596)
(100.004 0.099731 0.00529522)
(100.011 0.16036 0.00807316)
(100.02 0.23708 0.0111808)
(100.034 0.339009 0.0146906)
(100.055 0.479577 0.0185474)
(100.089 0.679835 0.0224115)
(100.151 0.974911 0.0253008)
(100.293 1.42594 0.0247939)
(100.341 1.8315 0.0238925)
(100.613 2.80606 0.0157375)
(102.417 5.31356 -0.00783314)
(110.977 3.98919 -0.00385887)
(108.968 -6.55814 -0.109119)
(102.761 -6.69763 -0.237464)
(101.13 -4.88419 -0.333302)
(100.696 -3.88893 -0.389799)
(100.532 -3.35046 -0.422368)
(100.454 -3.04352 -0.43763)
(100.39 -2.86893 -0.441683)
(100.291 -2.68892 -0.51524)
(100.306 -2.30519 -0.69356)
(100.286 -2.20143 -0.689877)
(100.268 -2.14251 -0.680779)
(100.252 -2.11157 -0.671424)
(100.237 -2.09488 -0.663299)
(100.225 -2.0867 -0.656761)
(100.216 -2.08435 -0.652159)
(100.209 -2.08573 -0.649706)
(100.205 -2.08912 -0.649332)
(100.202 -2.09323 -0.650754)
(100.202 -2.09723 -0.653554)
(100.202 -2.10059 -0.65726)
(100.204 -2.10296 -0.661388)
(100.206 -2.10416 -0.665592)
(100.209 -2.10404 -0.669678)
(100.211 -2.10243 -0.673692)
(100.215 -2.09896 -0.677924)
(100.22 -2.09286 -0.682828)
(100.232 -2.08234 -0.688484)
(100.003 0.0422137 0.00139619)
(100.013 0.0873737 0.00267304)
(100.031 0.140565 0.00376104)
(100.06 0.207749 0.00455568)
(100.104 0.296385 0.00478093)
(100.17 0.416465 0.00386571)
(100.272 0.581881 0.000713085)
(100.435 0.811604 -0.00669199)
(100.745 1.12927 -0.0220596)
(100.968 1.36421 -0.0321636)
(101.808 1.81065 -0.0663831)
(103.403 1.70587 -0.128997)
(105.157 -0.280172 -0.219405)
(104.697 -2.82841 -0.326925)
(102.928 -3.5502 -0.424969)
(101.727 -3.32575 -0.498608)
(101.11 -2.96847 -0.545245)
(100.785 -2.66583 -0.571859)
(100.602 -2.43778 -0.586353)
(100.484 -2.26791 -0.593735)
(100.401 -2.13208 -0.595275)
(100.31 -1.838 -0.741659)
(100.28 -1.80573 -0.736624)
(100.258 -1.78523 -0.731533)
(100.243 -1.77334 -0.727055)
(100.233 -1.76581 -0.723221)
(100.224 -1.76043 -0.720013)
(100.218 -1.75632 -0.717494)
(100.212 -1.75288 -0.715695)
(100.208 -1.74952 -0.71456)
(100.204 -1.74578 -0.713967)
(100.202 -1.74134 -0.713753)
(100.201 -1.736 -0.713752)
(100.201 -1.72966 -0.713807)
(100.201 -1.72224 -0.713861)
(100.204 -1.71369 -0.713952)
(100.207 -1.70395 -0.71425)
(100.212 -1.6929 -0.715068)
(100.221 -1.68055 -0.716814)
(100.238 -1.66758 -0.719886)
(100.004 0.0327197 0.000367508)
(100.019 0.0677103 0.000496636)
(100.048 0.108802 0.000143394)
(100.092 0.160335 -0.000991682)
(100.158 0.227219 -0.00344521)
(100.255 0.315233 -0.00812461)
(100.397 0.430486 -0.0165256)
(100.61 0.577211 -0.0310796)
(100.935 0.751324 -0.0556605)
(101.408 0.831659 -0.0954846)
(102.032 0.733123 -0.155709)
(102.692 0.212314 -0.240578)
(103.037 -0.752534 -0.343748)
(102.787 -1.56443 -0.455953)
(102.154 -1.86086 -0.553203)
(101.539 -1.85792 -0.623666)
(101.108 -1.76563 -0.668476)
(100.833 -1.65587 -0.694702)
(100.652 -1.55224 -0.709242)
(100.528 -1.46097 -0.716366)
(100.445 -1.38297 -0.718393)
(100.39 -1.31544 -0.716575)
(100.353 -1.26304 -0.71476)
(100.326 -1.22197 -0.71356)
(100.305 -1.19087 -0.712634)
(100.289 -1.16811 -0.712018)
(100.276 -1.15173 -0.711925)
(100.264 -1.14014 -0.712449)
(100.253 -1.13202 -0.713546)
(100.244 -1.12631 -0.715092)
(100.236 -1.12208 -0.716931)
(100.229 -1.11862 -0.718899)
(100.224 -1.11542 -0.720854)
(100.219 -1.11208 -0.722676)
(100.217 -1.10832 -0.724335)
(100.216 -1.10397 -0.72587)
(100.217 -1.09888 -0.727412)
(100.22 -1.09297 -0.729184)
(100.226 -1.08634 -0.731476)
(100.235 -1.07942 -0.734502)
(100.005 0.0206283 -0.000408516)
(100.024 0.0426478 -0.00112257)
(100.059 0.0684734 -0.00250169)
(100.113 0.100546 -0.00497993)
(100.193 0.141505 -0.00928643)
(100.306 0.193871 -0.0164374)
(100.465 0.259056 -0.0280152)
(100.686 0.33461 -0.0462978)
(100.986 0.407649 -0.0743689)
(101.375 0.439711 -0.115915)
(101.825 0.375443 -0.174476)
(102.24 0.141919 -0.251662)
(102.452 -0.270648 -0.343133)
(102.334 -0.688168 -0.437637)
(101.951 -0.920555 -0.521853)
(101.505 -0.972247 -0.586037)
(101.14 -0.93859 -0.629431)
(100.88 -0.881178 -0.656621)
(100.696 -0.822657 -0.672849)
(100.563 -0.769636 -0.681845)
(100.467 -0.725074 -0.686024)
(100.397 -0.69214 -0.687206)
(100.347 -0.670292 -0.687402)
(100.31 -0.656841 -0.687417)
(100.283 -0.649754 -0.687454)
(100.263 -0.647389 -0.687683)
(100.247 -0.648167 -0.688245)
(100.235 -0.650796 -0.689161)
(100.225 -0.654373 -0.690341)
(100.216 -0.658263 -0.691645)
(100.209 -0.661983 -0.692922)
(100.203 -0.665199 -0.694031)
(100.199 -0.667677 -0.694865)
(100.196 -0.669295 -0.695362)
(100.194 -0.669932 -0.695573)
(100.194 -0.6696 -0.695544)
(100.196 -0.668311 -0.695418)
(100.2 -0.666132 -0.695446)
(100.207 -0.663189 -0.695973)
(100.222 -0.659695 -0.697456)
(100.006 0.00703398 -0.000847803)
(100.026 0.0145459 -0.00197997)
(100.064 0.0233253 -0.00393702)
(100.123 0.0341521 -0.00705669)
(100.209 0.0478505 -0.0123388)
(100.328 0.0650985 -0.0206803)
(100.493 0.0859032 -0.0336731)
(100.712 0.108806 -0.0534463)
(100.993 0.128628 -0.0828299)
(101.331 0.133164 -0.12441)
(101.69 0.10293 -0.180452)
(101.999 0.0181106 -0.25114)
(102.154 -0.117435 -0.332548)
(102.084 -0.257252 -0.415996)
(101.815 -0.344581 -0.491211)
(101.463 -0.370438 -0.551005)
(101.14 -0.36309 -0.593291)
(100.891 -0.346299 -0.620716)
(100.707 -0.328982 -0.637574)
(100.572 -0.313339 -0.647325)
(100.472 -0.300204 -0.652457)
(100.399 -0.29008 -0.654775)
(100.347 -0.282254 -0.655755)
(100.31 -0.275863 -0.656337)
(100.284 -0.270319 -0.657137)
(100.264 -0.2653 -0.658316)
(100.249 -0.260574 -0.659888)
(100.236 -0.255998 -0.661815)
(100.226 -0.251518 -0.663991)
(100.217 -0.247125 -0.666266)
(100.209 -0.242814 -0.668475)
(100.202 -0.238579 -0.670465)
(100.196 -0.234419 -0.672106)
(100.191 -0.230331 -0.673284)
(100.188 -0.22628 -0.67424)
(100.187 -0.222288 -0.674879)
(100.187 -0.218376 -0.675298)
(100.19 -0.214587 -0.675738)
(100.196 -0.21108 -0.67653)
(100.206 -0.208417 -0.678113)
(99.9941 0.00523118 0.013071)
(99.9741 0.0104818 0.0271313)
(99.9372 0.0159484 0.0434459)
(99.8827 0.0216905 0.0634843)
(99.8092 0.0274791 0.0888434)
(99.7147 0.0326008 0.121419)
(99.5986 0.0355109 0.16324)
(99.4631 0.0334199 0.216558)
(99.3166 0.0218818 0.283386)
(99.177 -0.00506871 0.364612)
(99.0745 -0.0528799 0.45928)
(99.0462 -0.119208 0.563325)
(99.1155 -0.186481 0.669229)
(99.273 -0.236414 0.768411)
(99.4776 -0.259964 0.853177)
(99.6845 -0.266423 0.920778)
(99.8691 -0.263832 0.97195)
(100.025 -0.25636 1.00932)
(100.151 -0.246615 1.03586)
(100.251 -0.236787 1.05438)
(100.327 -0.227892 1.06718)
(100.384 -0.220078 1.07647)
(100.424 -0.213522 1.0842)
(100.453 -0.208829 1.09144)
(100.473 -0.206014 1.09859)
(100.488 -0.204656 1.10571)
(100.498 -0.204406 1.11274)
(100.506 -0.204996 1.11967)
(100.511 -0.206152 1.12652)
(100.516 -0.207619 1.13316)
(100.52 -0.209199 1.13941)
(100.524 -0.210762 1.14509)
(100.528 -0.212216 1.15008)
(100.533 -0.213509 1.15422)
(100.538 -0.214621 1.15734)
(100.543 -0.215584 1.15927)
(100.549 -0.216453 1.15987)
(100.557 -0.217284 1.15903)
(100.567 -0.218165 1.15658)
(100.583 -0.219269 1.15225)
(99.9944 0.0155335 0.012757)
(99.9748 0.0312279 0.026468)
(99.9385 0.0477481 0.0424353)
(99.8842 0.0654012 0.0621382)
(99.8098 0.0837039 0.0872342)
(99.7121 0.100804 0.119765)
(99.5883 0.112409 0.162088)
(99.4378 0.110314 0.216906)
(99.2658 0.0807127 0.286887)
(99.089 0.00388684 0.373862)