/*--------------------------------*- C++ -*----------------------------------*\
| =========                 |                                                 |
| \\      /  F ield         | OpenFOAM: The Open Source CFD Toolbox           |
|  \\    /   O peration     | Version:  2306                                  |
|   \\  /    A nd           | Website:  www.openfoam.com                      |
|    \\/     M anipulation  |                                                 |
\*---------------------------------------------------------------------------*/
FoamFile
{
    version     2.0;
    format      ascii;
    arch        "LSB;label=32;scalar=64";
    class       volVectorField;
    location    "1.85";
    object      Force;
}
// * * * * * * * * * * * * * * * * * * * * * * * * * * * * * * * * * * * * * //

dimensions      [1 1 -2 0 0 0 0];

internalField   uniform (0 0 0);

boundaryField
{
    walls
    {
        type            calculated;
        value           uniform (0 0 0);
    }
    inlet
    {
        type            calculated;
        value           uniform (0 0 0);
    }
    outlet
    {
        type            calculated;
        value           uniform (0 0 0);
    }
    NASA
    {
        type            calculated;
        value           nonuniform List<vector> 
14179
(
(-0.0141101 -0.129826 8.57504e-06)
(-0.0125426 -0.103752 6.14263e-06)
(-0.0644713 -0.521562 0.000848676)
(-0.100455 -0.808015 0.0033877)
(-0.0635312 -0.514454 0.000434456)
(-0.109549 -0.881047 0.00375213)
(0.215245 0.934542 -0.000407009)
(0.0932881 0.468297 -6.14694e-05)
(0.652052 3.19773 0.00341392)
(0.10039 0.503995 -6.75414e-05)
(0.00143349 0.00439768 -2.18427e-06)
(-0.0178555 -0.146144 0.000608343)
(0.13094 0.654007 -0.00252791)
(-0.0355431 -0.323201 0.0014644)
(0.062087 0.30978 -0.00116695)
(1.37972 0.930726 0.00283493)
(1.39165 0.922358 -0.000414957)
(0.0242495 0.136373 -6.15659e-05)
(0.14195 0.842397 -0.000108974)
(1.25985 0.835088 -0.00360135)
(-0.0166589 -0.233207 -4.1272e-06)
(-0.0206752 -0.192334 -0.000109705)
(-0.019067 -0.264832 -0.000217051)
(-0.00823458 -0.0600606 3.61906e-06)
(-0.0127081 -0.105174 2.40616e-05)
(-0.00890235 -0.0649307 1.97201e-05)
(-0.0128852 -0.106127 0.000448568)
(-0.0151652 -0.108665 0.000474295)
(-0.0132246 -0.120794 0.000510323)
(-0.0154573 -0.212181 0.00392639)
(0.0473194 0.206659 7.51635e-06)
(0.0534452 0.252032 -3.57005e-06)
(0.0574543 0.270934 -9.62927e-05)
(0.0466925 0.203392 -2.33561e-05)
(0.0729809 0.267664 -2.33185e-06)
(0.077032 0.282474 -5.55697e-06)
(0.0361946 0.131287 -1.05056e-06)
(0.0396264 0.143725 -3.24801e-06)
(-0.00228184 -0.0108201 0.000161047)
(-0.0128891 -0.0627266 0.000734189)
(0.170978 0.624433 -0.00194657)
(0.10004 0.360703 -0.000725349)
(0.0966939 0.485425 -9.54036e-05)
(-0.00558799 -0.039384 3.72736e-06)
(-0.00511009 -0.0359996 4.3046e-07)
(0.151061 0.758844 -0.000157747)
(-0.00988545 -0.06841 0.000331543)
(0.0973618 0.486108 -0.00120158)
(0.0905325 0.452442 -0.00124797)
(0.108565 0.443587 -0.000377567)
(0.0849784 0.315906 -2.35144e-05)
(0.084599 0.314501 -5.95437e-05)
(-0.0671282 1.63792 -0.000214352)
(1.3895 0.923854 -0.000757065)
(-0.0618169 1.51904 8.37612e-05)
(-0.00287151 1.41184 -0.000191405)
(0.0733963 1.10984 2.24632e-05)
(0.0649031 0.978631 -0.000191231)
(-0.0024843 1.23071 -1.26992e-05)
(0.0998326 0.392327 -3.29753e-05)
(0.15632 0.927036 -0.000227798)
(0.00721672 0.0262185 8.16207e-06)
(-0.0228486 0.567436 -0.00145744)
(0.910669 0.621534 0.0749098)
(-0.000744596 0.533329 -0.00166335)
(0.026917 0.408526 -0.00115632)
(0.127493 0.746248 0.00594385)
(-0.0142552 -0.142695 1.15819e-05)
(-0.0140547 -0.129399 1.66575e-05)
(-0.0987618 -0.794513 0.0033257)
(-0.0110085 -0.0873788 5.87272e-06)
(-0.0125215 -0.103585 1.30917e-05)
(1.30818 0.866116 -0.00437658)
(1.25956 0.834185 -0.00400413)
(0.346961 2.0574 -0.00941191)
(0.261517 1.54514 -0.00649128)
(-0.111062 -0.894399 0.00233493)
(-0.0568499 -0.353812 0.00154424)
(-0.0560179 -0.350971 0.00156768)
(-0.0431533 -0.253124 0.00112795)
(0.157553 0.679574 -0.00301235)
(0.177085 0.765666 -0.00332222)
(0.764936 1.31335 -5.12523e-05)
(0.765319 1.31204 -0.000320873)
(0.0927871 0.465649 -7.20383e-05)
(0.0847798 0.407306 -4.12232e-05)
(0.000146774 -0.000577221 -9.85265e-07)
(0.00189971 0.010067 -4.9164e-07)
(0.00193594 0.0102747 -2.61431e-06)
(0.000155246 -0.000518569 8.92418e-08)
(0.100719 0.505614 -6.42342e-05)
(0.0966544 0.498539 -5.4215e-05)
(-0.020068 -0.164028 0.000729777)
(-0.0135468 -0.0971032 0.000452994)
(-0.0204226 -0.145833 0.000646768)
(-0.0123817 -0.0854009 0.000423836)
(-0.0182133 -0.124928 0.000510519)
(0.0857588 0.42793 -0.00188295)
(-0.0200216 -0.182172 0.000793523)
(-0.0246246 -0.338292 0.00163502)
(-0.0207668 -0.291692 0.00067606)
(0.0804434 0.401783 -0.00173941)
(1.37683 0.924695 -0.00267422)
(0.0978745 0.577029 -9.43483e-05)
(0.111226 0.622097 -4.12208e-05)
(0.115489 0.645698 -0.000104832)
(0.182171 1.2684 -0.000150732)
(0.0941302 0.558401 -7.92059e-05)
(0.145555 0.863565 -0.00012601)
(0.0264828 0.0250364 2.18594e-05)
(0.310066 -0.114259 0.00311061)
(0.332878 -0.13197 0.00156565)
(0.0135686 0.0130249 -3.45131e-05)
(-0.00707813 -0.03028 0.000201185)
(0.0209281 0.0771314 -0.000280594)
(0.00170566 0.00565932 4.39837e-05)
(0.0208881 0.0840285 -0.000206147)
(-0.0098596 -0.0439718 0.0002076)
(-0.00222791 -0.012203 0.00013249)
(0.00382964 0.0158869 -1.59034e-05)
(-0.0183114 -0.0885291 0.000385612)
(-0.00108124 0.731061 -0.00292575)
(0.0407046 0.608136 -0.00252019)
(-0.00157768 0.980323 -0.00398969)
(0.0317122 0.480137 -0.00230297)
(-0.0346599 0.866145 -0.00365954)
(1.08897 0.732549 -0.00344562)
(-0.0469753 1.1614 -0.00468592)
(0.109653 0.648982 -0.0037284)
(0.15694 0.614609 -0.00287823)
(0.117809 0.460731 -0.00192359)
(0.108797 0.396997 -0.00163798)
(0.154036 0.562797 -0.00232499)
(0.0634769 0.229035 -0.000943031)
(0.0865768 0.312924 -0.00136417)
(-0.0128681 -0.145048 3.58909e-06)
(-0.0165489 -0.231349 2.40805e-05)
(-0.0100624 -0.0775887 5.47551e-06)
(-0.00809098 -0.0590181 6.61642e-06)
(0.000577961 0.00161527 0.530146)
(-0.0129423 -0.101829 0.000436757)
(0.000548507 0.00154312 0.504105)
(-0.0144014 -0.109724 0.000480702)
(0.00086167 0.00189671 0.573694)
(-0.0129397 -0.129193 0.000611005)
(0.00110884 0.00234105 0.574965)
(-0.0120418 -0.138714 0.00143893)
(0.0532316 0.251012 -4.19364e-05)
(0.0396346 0.18027 -1.3114e-05)
(0.0399502 0.181728 -3.09903e-05)
(0.0469128 0.20432 -2.55229e-05)
(0.0462147 0.203562 -1.52718e-05)
(0.0464506 0.20462 -3.19304e-05)
(0.0731682 0.268188 -4.90132e-06)
(0.024488 0.121813 -1.94331e-05)
(0.0219563 0.11142 -1.78263e-05)
(0.0371032 0.13451 2.01895e-06)
(0.0309516 0.108868 -1.9693e-06)
(-0.00665272 -0.0304125 0.000279888)
(-0.00557916 -0.0265476 0.000300215)
(0.000431743 0.00125889 0.319826)
(0.000431287 0.00121294 0.313091)
(0.000420611 0.00118707 0.308794)
(0.000324063 0.00119307 0.35528)
(0.0945671 0.32226 -0.000394642)
(0.161298 0.564023 0.00257519)
(-8.6877e-06 0.00122968 0.33582)
(0.000347693 0.000631766 0.305281)
(0.00012209 0.000423623 0.107416)
(0.0826182 0.290029 -0.000559377)
(0.286548 0.665699 -8.34776e-06)
(0.168547 0.594222 5.05905e-05)
(0.16684 0.58825 -5.08983e-05)
(0.0796745 0.372104 -2.95424e-05)
(0.0797362 0.372394 -4.81803e-05)
(0.131997 0.630531 -5.56463e-05)
(0.0781765 0.348093 -4.18515e-05)
(0.0820911 0.372588 -2.48428e-05)
(0.0827104 0.375306 -4.63182e-05)
(0.0778533 0.346771 -1.71769e-05)
(-0.00411307 -0.0292746 2.42051e-06)
(-0.00551934 -0.038904 3.29425e-06)
(0.156129 0.827137 -7.04378e-05)
(0.261748 0.451466 0.00992689)
(0.00108281 0.00435111 0.8556)
(0.000348901 0.00226183 0.408956)
(0.0479671 0.139525 -0.000212949)
(-0.0118595 -0.073967 0.000403985)
(-0.0118412 -0.074748 0.000549681)
(0.000992936 0.00261648 0.673724)
(0.00034899 0.00068225 0.309611)
(0.0964088 0.49487 -0.000239271)
(0.000544191 0.00072061 0.373326)
(0.140226 0.737086 0.00348035)
(0.000569796 0.00147178 0.345606)
(0.000420809 0.00125607 0.327061)
(-0.00030364 0.000988981 0.349759)
(7.02177e-05 0.000548064 0.112305)
(0.0807435 0.385717 -0.00109633)
(0.10345 0.480641 -0.000306051)
(0.00046831 0.000478449 0.205359)
(9.73803e-05 0.000637249 0.107627)
(0.170243 0.715511 4.03144e-05)
(0.0849968 0.315973 -3.41041e-05)
(0.0810047 0.310096 -2.90964e-05)
(0.0967328 0.394357 -5.19746e-05)
(0.06785 0.273287 -1.52322e-05)
(-0.897305 2.86857 -0.0220068)
(-0.0635269 1.55588 -7.95841e-05)
(-0.195274 1.82504 0.000793065)
(0.0730125 1.10244 -0.000124393)
(0.0561434 1.20018 -7.79259e-05)
(-0.00257528 1.27632 -5.37719e-05)
(0.0308084 1.16247 -5.36434e-05)
(0.110126 1.20885 -9.92057e-05)
(0.142483 1.83904 -0.000108484)
(0.141232 1.82319 -0.000148009)
(0.110741 1.21558 -9.24562e-05)
(0.125756 1.28475 -0.000128961)
(0.13371 1.24381 -2.65934e-05)
(0.134663 1.25337 -0.000158364)
(0.125136 1.2776 -3.10999e-05)
(0.0682749 0.28291 -2.97306e-05)
(0.0621491 0.246601 -2.69164e-05)
(0.0992363 0.389886 -3.56344e-05)
(0.11216 0.759905 -0.00011739)
(0.104187 0.656279 -8.75282e-05)
(-0.000307626 0.00131311 0.562637)
(0.000959855 0.00376139 0.885504)
(0.000846481 0.00247452 0.000133438)
(0.00042957 0.00391233 0.732689)
(0.0017714 0.00591207 0.000120091)
(0.00051852 0.0105411 0.273511)
(-0.0603038 0.578412 -0.00204132)
(0.00748715 -0.000335652 1.7396)
(0.000388728 0.000988695 0.30278)
(0.0141109 0.51612 -0.0016722)
(0.000772629 0.000458711 0.24401)
(0.0231273 0.484381 -0.00144881)
(0.0611514 0.52624 -0.00167474)
(0.0609124 0.516684 -0.00162621)
(0.000387734 0.000800999 0.243377)
(0.000417708 0.000876967 0.267735)
(0.0573134 0.528891 -0.00157308)
(0.052074 0.525456 -0.00127128)
(0.0471042 0.515626 6.12281e-05)
(2.34839e-05 -0.000167497 0.222845)
(-0.019067 -0.104675 0.00135354)
(0.000222612 0.00151709 0.500043)
(0.0917406 0.510239 -0.00122229)
(0.000422885 0.00121954 0.318295)
(0.000425568 0.00122581 0.319717)
(0.483743 -0.19271 -0.00373517)
(0.227979 0.215564 0.00183854)
(0.000187922 0.000231811 0.0802298)
(-0.0525481 -0.516753 0.00145884)
(-0.0687959 -0.555793 0.00157797)
(-0.0555227 -0.545471 0.00195411)
(-0.0692069 -0.559062 0.00162079)
(-0.0750726 -0.60569 0.00218199)
(-0.0581869 -0.571261 0.00227779)
(-0.0817212 -0.65862 0.00264091)
(0.179809 0.778253 -0.00337909)
(0.44959 2.2016 -0.00933101)
(0.183281 0.793685 -0.00343414)
(0.428999 2.10022 -0.00893242)
(-0.0636209 -0.515049 0.000489011)
(-0.0424153 -0.26454 0.00113236)
(-0.104821 -0.842838 0.00354909)
(-0.0482335 -0.300376 0.00129068)
(1.38911 0.920746 -0.000982446)
(1.39033 0.921478 -0.00045565)
(0.222585 0.966271 -0.000518479)
(0.649951 3.18862 -0.00257085)
(0.569635 2.79446 -0.00153245)
(0.217438 0.943739 -0.000741585)
(0.402018 2.3829 -0.00130804)
(0.452679 2.68341 -0.00229489)
(0.000962794 0.00262076 -1.19609e-06)
(0.00141773 0.00481476 -2.01388e-06)
(0.0241595 0.136958 -0.00011994)
(0.0246036 0.138963 -7.75292e-05)
(0.0475156 0.206104 -0.000759599)
(0.0347701 0.157819 -0.000578812)
(0.0576549 0.250892 -0.000965722)
(0.0265304 0.119491 -0.000405512)
(-0.10872 -0.874987 0.00372297)
(-0.0693232 -0.503822 0.00215223)
(0.0156323 0.0729292 -0.000186351)
(-0.0118496 -0.0654898 0.000339257)
(0.0641304 0.233862 -0.00103363)
(0.0721404 0.263039 -0.00113909)
(0.03488 0.125739 -0.000557807)
(0.0403437 0.145429 -0.000630459)
(0.286685 1.29705 -0.000602198)
(0.179705 0.779673 -0.000182816)
(0.31855 1.50624 -0.00073739)
(0.141134 0.708419 -0.000223254)
(-0.0182001 -0.153304 0.000188549)
(-0.0408676 -0.303323 0.000365009)
(-0.00665601 -0.0487062 -6.08928e-06)
(0.00217623 0.00827537 -5.46345e-06)
(-0.016675 -0.114786 5.03626e-05)
(-0.0221023 -0.155436 0.000100794)
(0.0974848 0.398629 9.71385e-05)
(0.0842123 0.313108 -0.000136105)
(0.0844343 0.3139 -8.21999e-05)
(0.108953 0.447054 -0.000785075)
(0.166587 0.731821 -0.000298574)
(0.1433 0.660485 -0.000155699)
(0.174043 0.765202 -0.000329846)
(0.183505 0.855876 -0.000177368)
(-0.00297093 1.42432 -0.000223873)
(0.0650434 0.982743 -0.000399972)
(-0.00289832 1.33946 -0.000523386)
(0.0633828 0.955581 -0.000234054)
(-0.0674376 1.64622 -0.000248043)
(1.39062 0.922929 -0.000448919)
(-0.0645924 1.57642 -0.000584358)
(0.483661 4.14866 -0.00221986)
(0.0941976 0.370174 -7.93608e-05)
(0.086993 0.341777 -0.0001551)
(0.0768627 0.28183 -0.000129975)
(0.0788425 0.289176 -2.57282e-05)
(0.0582275 0.305338 -0.000174946)
(0.186687 0.921603 -0.0012973)
(0.0233683 0.130546 -9.15059e-05)
(0.0489194 0.262638 -0.00011806)
(0.792721 4.96063 0.00144319)
(0.384465 2.56888 0.000137509)
(0.0430621 0.156186 -7.41966e-05)
(0.0413005 0.149845 -1.09526e-05)
(1.24136 0.82474 -0.00252632)
(0.0900007 0.623224 -0.00266161)
(0.249953 0.234459 -0.000983021)
(0.497644 -0.206332 0.000382775)
(0.236771 0.222786 -0.00101448)
(0.51932 -0.215689 0.000133491)
(0.0749315 0.274712 -3.4817e-06)
(0.033225 0.116844 -3.24129e-06)
(0.0383056 0.138912 2.94237e-06)
(0.286392 0.66536 -3.02763e-05)
(0.276296 0.811103 -0.000117794)
(0.000889848 0.00291954 0.725194)
(0.00036159 0.00154177 0.360986)
(0.000541206 0.000744546 0.382549)
(-0.204448 1.89453 -0.000256303)
(-0.0657563 1.60672 -0.000104056)
(1.3852 0.924353 -0.00143089)
(0.0273233 0.0258209 1.93528e-05)
(0.330925 -0.136009 0.000122855)
(0.331817 -0.134901 0.000531927)
(0.0253989 0.0239594 6.71418e-06)
(0.000538658 0.00176411 0.541149)
(0.000417931 0.000907815 0.378436)
(0.000385686 0.00100819 0.340054)
(0.000591711 0.00151766 0.362689)
(-0.0894124 -0.71995 0.0029726)
(1.34362 0.889676 -0.00450063)
(1.3285 0.879632 -0.00445027)
(1.30474 0.863851 -0.00436606)
(1.32695 0.878595 -0.00444596)
(0.399354 1.95403 -0.008333)
(0.176622 0.763862 -0.00332087)
(0.178524 0.772565 -0.00335611)
(0.421319 2.06245 -0.00878257)
(0.270792 1.6002 -0.00676311)
(0.289751 1.71255 -0.00719769)
(-0.024644 -0.145637 0.000638891)
(-0.0315155 -0.185395 0.000813112)
(-0.0557183 -0.346621 0.00150308)
(-0.0502849 -0.313012 0.00134821)
(-0.0412601 -0.241935 0.00106977)
(-0.0340746 -0.200202 0.000879602)
(0.253769 2.15928 -0.00897953)
(0.240614 2.04652 -0.00860041)
(0.0241491 0.0891158 -0.000335489)
(0.0224897 0.0908198 -0.000374821)
(0.0340009 0.138191 -0.000334998)
(0.0321807 0.118997 -0.00047396)
(0.00119013 0.00401633 5.44064e-05)
(0.0246634 0.1052 -0.000294395)
(0.0339725 0.146537 -0.00050253)
(0.0195704 0.0866601 -0.000225696)
(0.0401327 0.148588 -0.000607957)
(0.0440018 0.179385 -0.000482598)
(0.0344433 0.127418 -0.000512474)
(0.0425965 0.636133 -0.00262318)
(-0.00166368 1.02395 -0.00416699)
(-0.00185915 1.12923 -0.00459302)
(0.0469555 0.701502 -0.00289748)
(-0.0544045 1.34386 -0.00542789)
(1.2948 0.857231 -0.00432347)
(-0.0569059 1.40527 -0.00567864)
(-0.0488236 1.20679 -0.0048726)
(-0.0531915 1.31409 -0.00530821)
(1.2911 0.854776 -0.00431104)
(-0.00191447 1.1579 -0.00470861)
(0.0513067 0.767631 -0.0031625)
(-0.00202344 1.21428 -0.00493956)
(0.0482869 0.721878 -0.00295268)
(0.227026 1.34215 -0.00545762)
(0.412183 2.56378 -0.0129107)
(0.238039 1.58586 -0.00668634)
(0.247975 1.46429 -0.00625787)
(0.405979 2.53217 -0.0105964)
(0.378334 2.35887 -0.0100878)
(0.196288 1.30502 -0.00673607)
(-0.0812763 -0.596858 0.00210896)
(-0.101873 -0.819884 0.00356813)
(-0.0667282 -0.443036 0.00190994)
(-0.0570065 -0.355264 0.00157101)
(-0.0801404 -0.537377 0.00222375)
(-0.0532804 -0.332824 0.00150359)
(-0.0247892 -0.137883 0.000646225)
(-0.0450078 -0.264419 0.00120294)
(0.00216554 0.00430614 0.00020558)
(-0.0476518 -0.281186 0.00129898)
(0.232257 1.0437 -0.00473523)
(0.180431 0.779704 -0.00336099)
(0.239182 1.12721 -0.0048318)
(0.178526 0.771707 -0.00333554)
(0.226544 1.02147 -0.00440189)
(0.242206 1.1407 -0.00529613)
(0.369282 1.80508 -0.00788765)
(0.10583 0.413803 -0.00174124)
(0.0898911 0.3514 -0.00151087)
(0.0958217 0.349551 -0.00146076)
(0.0758587 0.276604 -0.00118813)
(0.087334 0.341435 -0.00148168)
(0.0813978 0.318293 -0.00139709)
(0.0557681 0.201158 -0.000837942)
(0.0428965 0.154637 -0.000664312)
(0.119752 0.277582 -0.00114103)
(0.101202 0.234475 -0.000925387)
(-0.0207119 -0.156988 0.000705385)
(-0.0182701 -0.130678 0.000591789)
(0.0813204 0.41571 -0.00206266)
(0.0860128 0.429383 -0.00180151)
(0.124194 0.65575 -0.00340181)
(-0.0191889 -0.18968 0.00075788)
(-0.0198222 -0.180762 0.000793096)
(-0.0171031 -0.188255 0.000505678)
(-0.0210994 -0.292664 0.00119883)
(0.0772537 0.369783 -0.00171381)
(0.0818764 0.408794 -0.00170504)
(-0.00476742 -0.0200141 0.000134631)
(0.00518324 0.0198066 2.78569e-05)
(-0.00151593 -0.0065912 9.45917e-05)
(0.0118925 0.0435188 -0.000112768)
(0.0175879 0.646036 -0.00261565)
(-0.00130086 0.845292 -0.00343919)
(0.0267823 0.56521 -0.00236931)
(0.0360063 0.539044 -0.00229987)
(-0.104471 0.993102 -0.00538092)
(-0.0409777 1.01594 -0.00414653)
(1.20571 0.805247 -0.000952002)
(-0.450948 1.46761 -0.0054561)
(-0.0448435 1.10964 -0.0044935)
(-0.139609 1.29925 -0.00515701)
(-0.0121611 -0.0635223 0.00032991)
(-0.00907901 -0.046673 0.000253187)
(-0.0108783 -0.0556827 0.000296343)
(-0.01036 -0.0543117 0.000287306)
(-0.0249496 -0.136943 0.000511448)
(0.000850497 0.00184349 0.385713)
(0.058414 0.393074 -0.00166836)
(0.0919347 0.636771 -0.00280668)
(0.0603894 0.406074 -0.00178226)
(0.126574 0.462022 -0.00188636)
(0.154248 0.563333 -0.0023023)
(0.073122 0.263922 -0.00107426)
(0.0622488 0.217791 -0.000896205)
(0.0816987 0.28636 -0.00135532)
(0.0895628 0.323466 -0.00133383)
(0.455521 -0.190354 -0.00246509)
(0.2135 0.196072 2.84194e-05)
(0.261169 0.242931 -0.000818285)
(0.52666 -0.21971 -0.000696656)
(0.224464 0.973114 -0.0040948)
(0.574343 2.81495 -0.0115373)
(0.230371 0.998866 -0.00412036)
(0.552712 2.70874 -0.0112168)
(-0.0640406 -0.518219 0.000698303)
(0.000154541 -0.00232086 5.55704e-06)
(0.00051996 -6.55351e-05 1.3434e-06)
(0.241691 1.0487 -0.00140219)
(0.637144 3.12457 -0.00505878)
(0.230212 0.998534 -0.0016328)
(-0.0611192 -0.444403 0.00187068)
(0.178896 0.786918 -0.00060984)
(0.145815 0.673167 -0.000599776)
(0.179148 0.788083 -0.00070389)
(0.145698 0.67256 -0.000525451)
(0.0612988 0.22469 -0.000178557)
(0.0635375 0.232791 -0.000154803)
(-0.0316993 -0.232759 0.000199983)
(0.165686 0.820317 -0.00072866)
(0.0656104 0.34519 -0.000305765)
(0.0303609 0.110047 -8.35114e-05)
(0.0311033 0.112689 -7.32316e-05)
(1.39157 0.9224 -0.000376109)
(0.0201763 0.0189299 -1.39186e-05)
(0.339345 -0.14084 2.58966e-06)
(0.0174333 0.0163359 -1.68612e-05)
(0.333787 -0.13847 -3.2779e-06)
(-0.0207182 -0.130905 0.000540312)
(-0.0232567 -0.146541 0.000611083)
(-0.0403134 -0.251594 0.00107551)
(-0.0945154 -0.760648 0.00316738)
(-0.0351703 -0.219919 0.000935764)
(0.185057 0.801529 -0.00346466)
(0.196644 0.852476 -0.00366675)
(0.100781 0.441121 -0.00181058)
(0.0755919 0.347013 -0.00141917)
(0.104394 0.457053 -0.00187912)
(0.0721783 0.331203 -0.00135035)
(0.0417746 0.190381 -0.000730052)
(0.0662637 0.288895 -0.00113667)
(0.0731804 0.31941 -0.00127433)
(0.0476627 0.217696 -0.000854299)
(0.058038 0.212315 -0.000966932)
(0.0564462 0.206355 -0.000939825)
(0.0623284 0.227317 -0.00101028)
(0.0584164 0.213144 -0.000958577)
(0.0133131 0.0679452 -0.00025495)
(0.0666895 0.327164 -0.00131741)
(-0.0687631 -0.499621 0.00212912)
(0.0231765 0.110696 -0.000364849)
(-0.00805409 -0.0452235 0.000243622)
(0.0302913 0.146193 -0.000527089)
(0.0314659 0.113842 -0.000524535)
(0.0301072 0.108842 -0.000501588)
(0.0336536 0.12133 -0.000541824)
(0.0310322 0.111931 -0.000507352)
(1.30697 0.865305 -0.00436992)
(1.27334 0.843047 -0.00417992)
(0.129153 0.121661 -0.000589281)
(0.36351 -0.150924 0.000385592)
(0.373634 -0.155126 0.000398075)
(0.117052 0.110251 -0.000537851)
(0.474919 -0.196935 0.000453428)
(0.220253 0.207446 -0.000969978)
(0.206071 0.194153 -0.000914723)
(0.455317 -0.188913 0.000450038)
(0.000182452 -0.00535794 9.97605e-06)
(5.41683e-05 -0.0147064 3.4995e-05)
(-0.0515967 -0.50761 0.00119513)
(-7.54141e-05 -0.0241649 6.93218e-05)
(-9.72441e-05 -0.0257944 6.08543e-05)
(-0.0668162 -0.540101 0.00127999)
(-0.0541384 -0.532087 0.00175452)
(-0.00013819 -0.0286871 0.000105421)
(-9.81048e-05 -0.0257805 8.67962e-05)
(-0.071632 -0.578328 0.00189212)
(-0.0721297 -0.582288 0.00193094)
(6.30036e-05 -0.0138535 6.06627e-05)
(-0.057228 -0.561972 0.00216119)
(-0.000174396 -0.0312808 0.000122716)
(-0.0789528 -0.636567 0.00246145)
(1.36745 0.905591 -0.00446392)
(1.36382 0.903161 -0.00449554)
(1.35956 0.900306 -0.00451908)
(1.3653 0.904136 -0.00450529)
(0.210596 0.913157 -0.00385947)
(0.526104 2.57854 -0.010784)
(0.544649 2.6693 -0.011077)
(0.189695 0.822636 -0.00349205)
(0.180618 0.781881 -0.00339073)
(0.237777 1.07306 -0.00461581)
(0.268554 1.26695 -0.00539551)
(0.443063 2.16947 -0.0092054)
(0.182087 0.788373 -0.00341473)
(0.245105 1.10653 -0.00474294)
(0.25791 1.21639 -0.00519852)
(0.43554 2.13243 -0.00906575)
(1.39088 0.921883 -0.0019589)
(1.38864 0.920426 -0.0015561)
(1.38876 0.920503 -0.00106062)
(1.38786 0.919912 -0.00149342)
(0.449484 2.66471 -0.00258143)
(0.451153 2.67457 -0.00343109)
(0.000872281 0.00209453 -9.74878e-07)
(-0.0639053 -0.517177 0.000644962)
(0.000633629 0.000636203 3.98743e-07)
(0.0233774 0.132434 -0.000218479)
(0.0237541 0.13463 -0.000185083)
(0.0240758 0.136501 -0.000133354)
(0.0238679 0.135295 -0.000172778)
(0.221436 0.961063 -0.00085613)
(0.241206 1.04662 -0.00127595)
(0.672131 3.29724 -0.00416184)
(-0.0554512 -0.368483 0.0015617)
(-0.0442604 -0.275905 0.00118231)
(-0.0647402 -0.470507 0.00198934)
(-0.0463206 -0.288593 0.00123841)
(-0.0602538 -0.400086 0.00170336)
(0.532314 4.55797 -0.00357238)
(0.525337 4.4977 -0.00278895)
(0.0841186 0.312763 -0.000155657)
(0.108966 0.447141 0.000343624)
(0.109017 0.447375 -0.000886238)
(0.0839681 0.312228 -0.000211085)
(0.142155 0.655501 -0.000405827)
(0.177409 0.78019 -0.000427226)
(0.178645 0.785754 -0.000521193)
(0.145271 0.670411 -0.000450696)
(0.108965 0.447167 0.000238231)
(0.0837763 0.31154 -0.000285108)
(0.108891 0.446875 -0.000989227)
(0.0838957 0.311967 -0.000231641)
(0.0657521 0.994379 -0.000437219)
(-0.00279317 1.28438 -0.000580277)
(-0.00246054 1.10871 -0.00072246)
(0.061964 0.937375 -0.000575113)
(-0.0535434 1.30511 -0.000894387)
(1.38899 0.92064 -0.000771144)
(-0.0555348 1.35352 -0.00113983)
(-0.062761 1.53134 -0.000663625)
(-0.0559774 1.36474 -0.000851557)
(1.38992 0.921243 -0.000680881)
(-0.00241321 1.05793 -0.000737809)
(0.0675155 1.02206 -0.000924957)
(-0.00243238 1.07244 -0.000908526)
(0.0624212 0.944407 -0.000634641)
(0.297551 1.34633 -0.000709089)
(0.217905 0.945818 -0.000598806)
(0.611984 3.00216 -0.00206803)
(0.36669 1.73361 -0.0013723)
(0.321895 1.52217 -0.00078167)
(0.58438 2.86667 -0.00180161)
(0.214971 0.933029 -0.00066554)
(0.313819 1.41962 -0.00110802)
(0.0846694 0.332576 -0.000179114)
(0.0791409 0.310765 -0.000222529)
(0.0762322 0.279447 -0.000153754)
(0.065306 0.239263 -0.000152494)
(0.0760701 0.298717 -0.000229596)
(0.705037 4.41048 -0.00275165)
(0.424129 2.51375 -0.00164889)
(0.721188 4.51276 -0.00300575)
(0.469427 3.13939 -0.00247227)
(0.480451 3.2126 -0.00212284)
(0.445026 2.63795 -0.0019344)
(-0.0298833 -0.220142 0.000127022)
(-0.0180035 -0.12228 0.000106948)
(0.00108619 0.00330009 -1.52532e-06)
(-0.0172513 -0.11795 6.87486e-05)
(0.00114251 0.00346475 -1.19588e-06)
(0.0648746 0.340773 -0.000188803)
(0.163313 0.807682 -0.000448315)
(0.165739 0.820238 -0.00054825)
(0.0500777 0.26998 -0.000238415)
(0.0242547 0.137437 -0.000105897)
(0.0500889 0.269515 -0.000151808)
(0.0243088 0.137582 -9.09189e-05)
(0.0411755 0.149295 -8.44633e-05)
(0.0320093 0.115977 -7.38433e-05)
(0.0663428 0.241913 -0.00106332)
(0.0688227 0.250939 -0.00109566)
(0.0323193 0.11296 -0.000502435)
(0.0363871 0.131166 -0.000577995)
(0.0382813 0.133803 -0.000579667)
(0.0380933 0.137312 -0.000600385)
(0.275428 0.808713 -0.000327709)
(0.276049 0.810411 -0.000197552)
(0.286098 0.664823 -0.000212744)
(0.286319 0.66531 -0.000176512)
(-0.20474 1.89684 -0.000319071)
(-0.0670335 1.63729 -0.000409998)
(1.39147 0.922694 -0.000377665)
(-0.855868 2.78303 -0.000860764)
(-0.0660501 1.61266 -0.000503891)
(-0.199009 1.84223 -0.000643051)
(0.0771566 0.282955 -9.34036e-05)
(0.0789342 0.289516 -5.55855e-05)
(0.0435799 0.158088 -5.03469e-05)
(0.0363334 0.127782 -6.06697e-05)
(0.0341438 0.120103 -9.54415e-06)
(0.042772 0.155181 -2.71195e-05)
(0.414427 2.4526 -0.0101129)
(0.386009 2.28421 -0.00950144)
(2.62523e-05 -0.00287708 2.51411e-05)
(-0.0028294 -0.0194054 9.45964e-05)
(-0.027699 -0.173902 0.000733079)
(-0.0243895 -0.153519 0.000641884)
(-0.00782736 -0.0483295 0.0002179)
(-0.0041245 -0.026901 0.000126092)
(1.34255 0.88897 -0.00449636)
(1.35285 0.895821 -0.00452041)
(1.36037 0.900838 -0.00452398)
(1.3537 0.896393 -0.00452099)
(-0.0221661 -0.131299 0.000576629)
(-0.0163076 -0.0974011 0.000429109)
(0.349779 2.06871 -0.0086235)
(0.375715 2.22303 -0.00925979)
(-0.0930027 -0.748584 0.00311103)
(-0.0291725 -0.182978 0.000772844)
(-0.0333823 -0.208907 0.000887508)
(-0.00951406 -0.0580904 0.000259498)
(-0.0142408 -0.0854427 0.000377582)
(0.199617 0.865455 -0.00370046)
(0.515951 2.52866 -0.0106162)
(0.191238 0.829249 -0.00352702)
(0.480775 2.35548 -0.0099488)
(0.283526 2.41342 -0.0100513)
(0.291917 2.48526 -0.0103587)
(0.0645148 0.263749 -0.000749439)
(0.0522609 0.193725 -0.000807548)
(0.0550901 0.204254 -0.000853237)
(0.0605668 0.247512 -0.00133295)
(0.0957509 0.418942 -0.00171421)
(0.0635618 0.291316 -0.00117796)
(0.0913168 0.399394 -0.00162806)
(0.0676402 0.310193 -0.00126062)
(0.058418 0.216642 -0.000906586)
(0.0560332 0.207765 -0.000868796)
(0.0693386 0.283591 -0.000809818)
(-0.00234881 1.37756 -0.00559906)
(0.0576233 0.862704 -0.00354834)
(0.0589417 0.882566 -0.00362777)
(-0.00229286 1.35034 -0.00548994)
(-0.0641941 1.58392 -0.00639442)
(1.3394 0.886867 -0.00448699)
(-0.0649419 1.6021 -0.00646523)
(-0.00236833 1.38695 -0.00563448)
(0.0604305 0.905033 -0.00371539)
(-0.00240172 1.40035 -0.00568585)
(0.05938 0.889174 -0.00365382)
(-0.0637544 1.57316 -0.00635379)
(1.33621 0.884748 -0.00447642)
(-0.0625394 1.54341 -0.00623493)
(0.317835 2.7067 -0.0112285)
(0.311893 2.65588 -0.011028)
(0.0419235 0.155254 -0.000637905)
(0.0461945 0.171149 -0.000708333)
(0.0540538 0.220727 -0.00118072)
(0.0510502 0.18922 -0.000787847)
(0.0587537 0.240055 -0.000676291)
(0.0476362 0.176513 -0.000731768)
(0.0798217 0.348701 -0.00140545)
(0.0581631 0.266327 -0.00106921)
(0.0850769 0.37188 -0.00150801)
(0.0534042 0.244292 -0.000971887)
(-0.0575847 1.42186 -0.00574745)
(-0.0598572 1.47769 -0.0059704)
(1.31532 0.870877 -0.00440389)
(0.052154 0.780414 -0.00321593)
(-0.00205816 1.2304 -0.00500686)
(-0.00216391 1.28622 -0.00523088)
(0.0545036 0.815735 -0.00335935)
(-0.00219616 1.30255 -0.00529713)
(0.0570568 0.854153 -0.00351475)
(0.0553044 0.827784 -0.00340709)
(-0.00226769 1.33863 -0.00544456)
(-0.0605266 1.49411 -0.00603669)
(1.31927 0.873496 -0.00441653)
(-0.0620494 1.53144 -0.00618902)
(0.0759131 0.297367 -0.00132138)
(0.0761451 0.298143 -0.00132561)
(0.0559617 0.2044 -0.00092904)
(0.0560989 0.205039 -0.00093388)
(0.0762468 0.298854 -0.00132627)
(0.242264 1.14202 -0.00489907)
(0.406443 1.98908 -0.00850811)
(0.22781 1.02739 -0.00443139)
(0.176682 0.764296 -0.00332996)
(0.177705 0.768884 -0.00334519)
(0.234889 1.05988 -0.00456324)
(0.414468 2.0287 -0.00864263)
(0.25376 1.19669 -0.00512092)
(0.0775614 0.303451 -0.00134448)
(0.0771707 0.301972 -0.00133955)
(0.0761657 0.298176 -0.00132555)
(0.0560499 0.204675 -0.000929436)
(0.0575955 0.210188 -0.000948215)
(0.264201 1.76023 -0.00738412)
(0.420918 2.62577 -0.0110413)
(0.277007 1.63698 -0.00689602)
(0.283719 1.67679 -0.00706017)
(0.451899 2.81951 -0.0118236)
(0.442101 2.75832 -0.0115789)
(0.270981 1.80554 -0.00755819)
(-0.00226762 -0.0150528 9.38519e-05)
(-0.026767 -0.157922 0.000692383)
(0.0502418 0.245424 -0.000964056)
(0.00516763 0.0248585 -6.81677e-05)
(-0.0292347 -0.1722 0.000754921)
(-0.0100088 -0.0571429 0.000277211)
(-0.06596 -0.437773 0.00188009)
(-0.0539719 -0.335769 0.0014524)
(-0.0659181 -0.478991 0.00202953)
(-0.0521822 -0.324707 0.0014)
(-0.0618715 -0.410738 0.00175267)
(0.463205 2.89025 -0.0121084)
(0.472504 2.94844 -0.0123385)
(0.29454 1.96307 -0.00818602)
(0.288576 1.92319 -0.00802767)
(-0.0219277 -0.122106 0.000568353)
(-0.0388515 -0.227898 0.00100364)
(0.0435698 0.212262 -0.00081894)
(0.00184663 0.00728877 8.48761e-06)
(0.0372969 0.181065 -0.000682916)
(-0.0364374 -0.213889 0.000939652)
(-0.0130514 -0.0736898 0.000349925)
(0.0294904 0.106497 -0.000489478)
(0.0297941 0.107681 -0.000496244)
(0.0295263 0.106598 -0.000489281)
(0.0304798 0.109961 -0.000500409)
(0.116138 0.340031 -0.00139483)
(0.141836 0.41549 -0.0017391)
(0.189002 0.438433 -0.00189173)
(0.183675 0.426065 -0.00183662)
(0.156404 0.362749 -0.00155181)
(0.164507 0.381572 -0.00164003)
(0.148789 0.435913 -0.00183146)
(-0.595764 1.94035 -0.00748707)
(1.30146 0.861648 -0.00434639)
(-0.0561744 1.38732 -0.00560558)
(-0.16758 1.55861 -0.00622775)
(-0.568152 1.85059 -0.00720056)
(-0.498768 1.62402 -0.00617147)
(-0.516739 1.68288 -0.00649909)
(-0.144854 1.348 -0.00538234)
(-0.0503359 1.24395 -0.0050206)
(1.28372 0.849865 -0.00426179)
(-0.550945 1.79469 -0.00693014)
(0.0879764 0.320858 -0.00134904)
(0.081085 0.295702 -0.00125977)
(0.142483 0.134232 -0.000645837)
(0.399496 -0.165865 0.000429152)
(0.38589 -0.160214 0.000413057)
(0.156295 0.147256 -0.000702388)
(0.0545194 0.19069 -0.000791809)
(0.0508531 0.183374 -0.000768927)
(0.0463023 0.166938 -0.000710286)
(0.0410449 0.14347 -0.000615136)
(0.187404 0.176582 -0.000834938)
(0.41622 -0.172799 0.000438043)
(0.433917 -0.18011 0.000448993)
(0.172051 0.162114 -0.000767404)
(0.659642 3.23505 -0.00549661)
(0.221135 0.959183 -0.00163334)
(0.240537 1.04353 -0.00204032)
(0.669193 3.28225 -0.00653331)
(0.223088 0.967256 -0.00299214)
(0.619711 3.03799 -0.00893391)
(0.24758 1.07358 -0.00317683)
(0.617034 3.02471 -0.00926845)
(0.209613 0.909113 -0.00345005)
(0.668711 3.27798 -0.0121329)
(0.211951 0.918993 -0.00343373)
(0.605463 2.96807 -0.0112148)
(-0.0643219 -0.520401 0.000799909)
(-0.0323664 -0.23739 0.00038976)
(-0.04666 -0.340172 0.00137505)
(-0.0597557 -0.434573 0.00182634)
(-0.0973674 -0.783392 0.00327322)
(-0.05217 -0.513122 0.00135037)
(-0.0052709 -0.15932 0.000448188)
(-0.00524986 -0.158747 0.000408825)
(7.65586e-05 -0.0130265 3.84341e-05)
(3.81124e-05 -0.015876 3.85195e-05)
(-3.89631e-05 -0.00351546 7.91388e-06)
(-0.0653542 -0.528534 0.00104393)