/*--------------------------------*- C++ -*----------------------------------*\
| =========                 |                                                 |
| \\      /  F ield         | OpenFOAM: The Open Source CFD Toolbox           |
|  \\    /   O peration     | Version:  2306                                  |
|   \\  /    A nd           | Website:  www.openfoam.com                      |
|    \\/     M anipulation  |                                                 |
\*---------------------------------------------------------------------------*/
FoamFile
{
    version     2.0;
    format      ascii;
    arch        "LSB;label=32;scalar=64";
    class       volScalarField;
    location    "1.85";
    object      p;
}
// * * * * * * * * * * * * * * * * * * * * * * * * * * * * * * * * * * * * * //

dimensions      [0 2 -2 0 0 0 0];

internalField   nonuniform List<scalar> 
111542
(
60.0764
61.4326
64.6491
69.8903
77.2347
86.8964
99.0348
113.674
130.306
147.481
162.605
171.633
170.508
158.068
137.427
114.332
92.7528
74.1571
58.6594
46.1113
36.1491
28.4689
22.6855
18.2892
14.9501
12.3957
10.3442
8.7581
7.58244
6.68502
5.97875
5.40402
4.97027
4.60458
4.25318
3.87239
3.40715
2.85064
2.09924
1.05702
59.0066
60.3231
63.5063
68.6837
76.0156
85.8211
98.4722
114.215
132.873
153.348
172.902
185.951
184.868
168.381
142.355
115.459
91.868
72.2317
56.2909
43.6772
33.9473
26.5856
21.0623
16.9926
13.9396
11.5746
9.72412
8.30168
7.21591
6.37047
5.69824
5.15657
4.71853
4.34187
3.98493
3.60825
3.16696
2.61442
1.87802
0.89741
56.8886
58.1373
61.1746
66.1625
73.3716
83.3147
96.7046
114.348
136.902
164.196
192.861
214.213
214.027
188.329
151.872
118.451
91.0382
69.3049
52.4732
39.695
30.2284
23.5223
18.6675
15.0978
12.2064
9.86547
8.10096
6.8198
5.87958
5.17503
4.64212
4.23641
3.92052
3.65921
3.4159
3.15278
2.8247
2.37434
1.72566
0.794347
53.776
54.8949
57.6304
62.1902
68.9572
78.6616
92.4551
112.04
139.833
179.096
214.367
257.085
262.658
221.593
168.95
127.938
94.7134
69.5492
51.1037
37.6424
23.8407
17.596
15.0019
13.4337
11.3596
9.26232
7.60256
6.36175
5.40208
4.64376
4.04878
3.58496
3.22062
2.92356
2.66346
2.40732
2.10981
1.70829
1.1065
0.174186
49.7817
50.6868
52.912
56.6809
62.43
71.0067
83.8591
103.416
133.714
178.728
255.93
342.48
366.689
259.119
173.639
123.617
83.8918
57.3112
39.8434
28.6226
21.4582
6.34025
5.51427
6.02373
5.34488
4.50133
3.91124
3.48646
3.13869
2.85285
2.62782
2.4526
2.31419
2.19679
2.0872
1.96848
1.8099
1.55778
1.09297
0.110663
45.1053
45.705
47.1886
49.7391
53.7292
59.8938
69.5637
85.1942
111.55
166.408
260.316
455.709
622.328
252.131
177.224
114.717
67.0683
41.0026
25.8082
16.8032
15.8443
13.0602
12.1688
7.7219
4.62749
3.12505
2.31724
1.74404
1.31373
1.01641
0.826466
0.711223
0.646111
0.613941
0.601673
0.596852
0.585608
0.55752
0.527176
0.653823
40.0446
40.2657
40.8171
41.7824
43.3378
45.8188
49.8035
56.2656
66.8771
106.199
181.747
411.855
1954.39
-410.563
221.001
76.473
30.7497
16.1319
8.35899
-1.35954
-6.29045
15.2287
14.7671
9.26454
5.83614
4.39259
3.66438
3.1199
2.6919
2.38439
2.17234
2.0227
1.91403
1.83169
1.76614
1.70951
1.64725
1.57248
1.48835
1.46798
34.9756
34.7896
34.3287
33.5514
32.3835
30.6461
27.9248
23.2527
14.2015
16.1038
-1.6388
-165.546
-1014.68
-1048.65
-311.893
-101.348
-46.1339
-25.668
-16.4274
-10.2494
-3.8708
-7.74599
-6.0325
-4.53219
-3.69775
-2.81344
-1.93765
-1.22116
-0.657614
-0.194246
0.198255
0.530755
0.810229
1.04144
1.22683
1.36398
1.43685
1.41408
1.22973
0.756874
30.3087
29.7469
28.3334
25.9287
22.259
16.7609
8.40332
-4.7231
-26.2735
-49.9611
-124.455
-270.34
-481.625
-508.798
-321.138
-175.403
-100.526
-61.1289
-39.0585
-25.1081
-15.234
-8.6015
-4.59799
-1.72169
0.0202863
1.09834
1.85438
2.38824
2.74567
2.97828
3.1273
3.21703
3.26022
3.26252
3.22281
3.13324
2.9694
2.68256
2.17818
1.26673
26.4488
25.5655
23.3769
19.6726
14.0666
5.82916
-6.25146
-24.1542
-51.1739
-92.9387
-151.308
-224.545
-290.075
-297.696
-239.337
-165.754
-110.265
-74.6761
-51.579
-35.5714
-24.2607
-16.7919
-11.7738
-8.1864
-5.63949
-3.81984
-2.44699
-1.37296
-0.529276
0.134566
0.661596
1.08224
1.41407
1.66539
1.83479
1.91529
1.88376
1.69793
1.29779
0.635326
23.6994
22.5948
19.8707
15.2934
8.43701
-1.42801
-15.4091
-34.9998
-62.0627
-98.4438
-144.051
-193.569
-232.1
-238.907
-208.047
-158.912
-114.361
-81.8632
-59.0203
-42.3617
-29.9892
-20.9496
-14.3249
-9.45287
-5.88159
-3.27438
-1.35633
0.0666875
1.11994
1.89188
2.45079
2.84719
3.11478
3.27235
3.31896
3.26538
3.08834
2.74142
2.15205
1.18892
22.2719
21.0642
18.0566
13.0675
5.59757
-4.98902
-19.7115
-39.7116
-66.1355
-99.3092
-137.673
-175.741
-203.49
-209.379
-189.37
-153.153
-115.556
-85.0471
-62.3527
-45.3949
-32.5798
-23.0105
-15.9911
-10.8759
-7.18892
-4.51469
-2.55618
-1.1059
-0.0232114
0.787485
1.39442
1.84593
2.17518
2.40512
2.48124
2.47874
2.35602
2.06284
1.54901
0.760747
59.4761
60.7834
63.9288
69.0084
76.118
85.4645
97.2393
111.423
127.511
144.141
158.785
167.474
166.2
154
133.906
111.463
90.5479
72.4857
57.4003
45.1397
35.4302
27.922
22.222
17.925
14.6543
12.1095
10.1026
8.55147
7.37774
6.48384
5.79208
5.24952
4.82233
4.46359
4.12861
3.77556
3.35883
2.82916
2.1052
1.0844
58.4183
59.7019
62.7952
67.8131
74.9142
84.4104
96.6674
111.919
129.998
149.863
168.846
181.566
180.144
163.92
138.579
112.504
89.651
70.5785
55.0509
42.742
33.245
26.0329
20.6132
16.6331
13.6428
11.3089
9.48088
8.07378
6.99653
6.16142
5.50469
4.98295
4.56209
4.20415
3.87177
3.52626
3.12443
2.61151
1.91463
0.952907
56.3311
57.5514
60.4982
65.3294
72.3091
81.9358
94.904
112.003
133.885
160.405
188.26
208.87
208.616
183.304
147.765
115.422
88.8881
67.7579
51.3263
38.8366
29.6159
23.0459
18.2783
14.7595
11.9016
9.59353
7.86485
6.61917
5.71017
5.03185
4.52157
4.1356
3.8371
3.59201
3.36774
3.12918
2.83472
2.42568
1.81803
0.894476
53.2664
54.3605
57.0114
61.422
67.967
77.3571
90.717
109.717
136.747
175.06
210.764
252.721
257.863
216.913
165.349
125.423
92.9754
68.2837
50.1222
36.8455
23.0097
17.0659
14.6392
13.0676
10.9191
8.7818
7.13301
5.93215
5.02347
4.31917
3.77746
3.36283
3.04295
2.78626
2.56537
2.35144
2.10584
1.76777
1.23555
0.343409
49.3369
50.2215
52.3734
56.0104
61.5606
69.852
82.3039
101.311
130.877
175.925
252.224
337.605
360.521
253.004
169.696
121.585
82.6459
56.3106
38.8928
27.5715
20.0064
5.84413
5.30326
5.85223
5.14104
4.28917
3.71796
3.31307
2.97445
2.68763
2.45489
2.26778
2.11708
1.99068
1.87914
1.77205
1.64789
1.45798
1.08348
0.206112
44.7407
45.3245
46.7519
49.1999
53.0351
58.9791
68.3446
83.5696
109.415
164.251
257.937
451.781
616.042
245.092
172.939
113.58
66.3944
40.2099
24.8596
15.4767
10.6563
11.0513
10.4819
6.09314
3.1741
1.92032
1.35905
1.00083
0.745808
0.584065
0.494491
0.450496
0.43619
0.441674
0.462704
0.496521
0.541628
0.59785
0.673886
0.830328
39.769
39.9818
40.4994
41.4011
42.8638
45.2209
49.0517
55.3493
65.8528
105.21
180.861
410.728
1942.6
200.861
76.284
31.4253
16.3434
8.20189
-1.62322
-8.14879
14.8337
13.9988
8.26164
4.90998
3.59858
2.95537
2.45631
2.05098
1.75011
1.53351
1.37391
1.25625
1.17087
1.11361
1.08198
1.07215
1.0809
1.09927
1.08842
34.7811
34.6097
34.1387
33.3398
32.1489
30.3973
27.6925
23.1206
14.3694
16.435
-0.648884
-161.782
-994.173
-1035.75
-307.791
-99.1009
-44.6933
-25.0279
-16.2382
-10.0784
-2.86459
-8.57277
-7.08038
-5.57923
-4.56788
-3.50218
-2.50395
-1.70445
-1.07807
-0.567028
-0.139968
0.217467
0.516312
0.764659
0.970116
1.1362
1.25504
1.29904
1.19572
0.7694
30.213
29.6645
28.2599
25.8757
22.2488
16.8347
8.63923
-4.18391
-25.1852
-48.7136
-121.688
-265.336
-473.566
-498.493
-315.296
-171.716
-98.2736
-59.9253
-38.4877
-24.8615
-15.0532
-9.04715
-5.23782
-2.4003
-0.598808
0.546092
1.34469
1.90273
2.2734
2.51088
2.65857
2.74382
2.78246
2.78342
2.74952
2.67746
2.54786
2.31624
1.89224
1.09738
26.4273
25.5575
23.408
19.7575
14.2429
6.16193
-5.66008
-23.141
-49.4852
-90.2132
-147.159
-218.648
-282.765
-289.881
-232.758
-161.146
-107.42
-73.0841
-50.7689
-35.2478
-24.2613
-17.0356
-12.159
-8.62166
-6.08065
-4.24896
-2.85759
-1.76514
-0.906673
-0.232662
0.300842
0.725563
1.06085
1.31688
1.4959
1.59335
1.58982
1.44675
1.10905
0.536524
23.7376
22.6531
19.9753
15.4722
8.74449
-0.921661
-14.5973
-33.7324
-60.1322
-95.5996
-140.034
-188.228
-225.76
-232.441
-202.341
-154.667
-111.549
-80.1539
-58.056
-41.8911
-29.8563
-21.0501
-14.5691
-9.78585
-6.26611
-3.68452
-1.77568
-0.354326
0.698852
1.46995
2.02712
2.42132
2.68706
2.8451
2.90288
2.86301
2.70799
2.39827
1.87034
1.01789
22.3466
21.1485
18.2058
13.2844
5.97616
-4.39806
-18.7975
-38.3425
-64.1016
-96.463
-133.855
-170.925
-197.943
-203.769
-184.404
-149.199
-112.762
-83.2703
-61.3006
-44.8397
-32.3599
-23.0217
-16.1579
-11.1573
-7.52184
-4.8719
-2.925
-1.47864
-0.396279
0.414995
1.02222
1.47326
1.8
2.01947
2.1296
2.14085
2.03379
1.7712
1.31235
0.632323
58.3507
59.5878
62.5541
67.3248
73.9916
82.7479
93.7724
107.031
122.044
137.544
151.118
159.035
157.589
145.872
126.815
105.658
85.9825
68.9498
54.6695
43.0206
33.771
26.5694
21.0541
16.8949
13.7409
11.2917
9.37191
7.88639
6.75404
5.89129
5.22708
4.70923
4.2977
3.95573
3.64654
3.33171
2.96861
2.5045
1.86952
0.972776
57.3201
58.5376
61.45
66.1591
72.8141
81.705
93.1709
107.424
124.309
142.85
160.556
172.152
170.613
155.049
131.048
106.538
85.0761
67.0917
52.3859
40.6986
31.6586
24.6914
19.4163
15.5885
12.7488
10.5287
8.77569
7.41307
6.36025
5.54009
4.89462
4.3826
3.97016
3.62527
3.31642
3.00943
2.66439
2.22887
1.63524
0.811098
55.2903
56.4484
59.2176
63.7435
70.2736
79.2732
91.3912
107.37
127.841
152.695
178.823
198.214
197.411
173.031
139.442
109.166
84.3025
64.3757
48.7936
36.9377
28.2446
21.791
17.0226
13.6141
10.9287
8.76388
7.12543
5.93246
5.05478
4.39616
3.89985
3.52583
3.23973
3.01243
2.81662
2.62396
2.39844
2.08667
1.60389
0.818931
52.3145
53.3515
55.8354
59.9541
66.0602
74.8205
87.2934
105.065
130.441
166.612
201.833
241.935
246.22
206.162
156.963
119.44
88.726
65.1829
47.7767
35.0195
21.2907
15.4809
13.3372
11.9344
9.82995
7.6845
6.00609
4.76606
3.8173
3.07974
2.51543
2.09162
1.77736
1.54394
1.36882
1.22981
1.09722
0.91992
0.6045
-0.00429435
48.5054
49.3414
51.3468
54.7238
59.8777
67.5898
79.2078
97.0257
124.942
168.965
242.685
325.164
345.899
239.885
160.958
116.41
79.2275
53.7277
36.728
25.6331
18.1272
2.05253
2.94194
4.41532
3.89999
3.02458
2.41645
1.98413
1.62441
1.32374
1.08509
0.902082
0.76875
0.675445
0.619858
0.600872
0.61444
0.633195
0.558794
0.0447441
44.0572
44.6055
45.9194
48.1629
51.6863
57.1766
65.894
80.2043
104.806
158.627
250.836
441.006
598.487
228.569
163.929
110.881
64.6204
38.6365
23.4122
14.0971
9.15024
6.92334
6.98251
2.99024
-0.0176209
-1.49548
-2.2299
-2.69576
-3.00958
-3.19068
-3.26559
-3.26848
-3.20807
-3.09806
-2.94018
-2.72773
-2.44115
-2.04198
-1.43909
-0.344083
39.2624
39.4435
39.8901
40.6644
41.9384
44.036
47.5237
53.4118
63.5395
102.53
178.273
409.383
1913.62
194.821
81.9164
33.044
16.1665
7.13959
-2.88264
-7.98526
14.8783
12.6279
5.94845
2.23817
0.740211
-0.0156472
-0.555563
-0.946443
-1.19903
-1.34681
-1.42381
-1.45055
-1.42924
-1.36065
-1.23526
-1.03295
-0.722842
-0.245623
0.497098
34.4153
34.2574
33.7662
32.9263
31.687
29.897
27.2054
22.7966
14.5909
17.1442
2.15011
-151.088
-971.737
-1011.26
-296.256
-91.9419
-41.3844
-24.1407
-16.5505
-10.8617
-3.426
-7.79734
-7.5028
-6.80164
-5.9405
-4.86686
-3.8621
-3.05376
-2.41221
-1.88578
-1.44309
-1.06635
-0.743259
-0.460383
-0.200376
0.0490509
0.296894
0.532647
0.697068
0.574647
30.0233
29.4888
28.1131
25.7708
22.2251
16.973
9.09272
-3.13242
-23.0168
-45.5943
-114.993
-252.894
-454.383
-478.828
-300.682
-162.492
-93.1539
-57.4104
-37.4367
-24.6017
-15.1952
-9.5936
-6.07783
-3.43882
-1.73587
-0.655155
0.101596
0.641272
1.01239
1.26298
1.4347
1.55339
1.63447
1.68722
1.72082
1.73727
1.72702
1.65669
1.44259
0.89533
26.3818
25.5419
23.4485
19.9055
14.574
6.79983
-4.51112
-21.1479
-46.1162
-84.6549
-138.562
-206.352
-267.352
-274.132
-219.792
-152.175
-101.928
-69.9852
-49.1483
-34.5623
-24.2211
-17.4738
-12.6374
-9.12266
-6.67003
-4.91653
-3.56101
-2.47482
-1.60866
-0.92052
-0.368271
0.0786753
0.440672
0.727246
0.947186
1.09965
1.17162
1.13112
0.923952
0.487391
23.7965
22.7456
20.154
15.8027
9.32325
0.0472268
-13.0231
-31.2418
-56.2974
-89.8871
-131.922
-177.502
-213.104
-219.532
-191.158
-146.304
-105.944
-76.6405
-55.9518
-40.7375
-29.3694
-21.0126
-14.7425
-10.0967
-6.70617
-4.22847
-2.38673
-1.00365
0.0294921
0.792934
1.35224
1.75682
2.04091
2.22524
2.32205
2.33252
2.24382
2.02344
1.61274
0.903171
22.4624
21.3005
18.4569
13.7063
6.67935
-3.26761
-17.0236
-35.6361
-60.0935
-90.7632
-126.149
-161.208
-186.796
-192.433
-174.33
-141.324
-107.21
-79.6278
-59.0208
-43.5049
-31.69
-22.8099
-16.2283
-11.3914
-7.85988
-5.28721
-3.39512
-1.98137
-0.914676
-0.107506
0.503652
0.96506
1.30794
1.54972
1.69799
1.75141
1.69743
1.50787
1.14526
0.575691
56.8001
57.9351
60.639
64.9728
71.0126
78.9233
88.8526
100.75
114.165
127.941
139.88
146.615
144.922
133.959
116.475
97.223
79.3446
63.8143
50.7297
40.0115
31.469
24.7571
19.5248
15.5113
12.4591
10.1096
8.28406
6.87586
5.80202
4.98306
4.35326
3.86457
3.48005
3.16737
2.89511
2.63077
2.33738
1.96888
1.46667
0.762789
55.8064
56.9246
59.5758
63.8459
69.8636
77.8804
88.1867
100.955
116.028
132.517
148.198
158.063
156.331
141.875
119.976
97.7927
78.3561
61.9816
48.5277
37.8148
29.5223
22.9673
17.8682
14.1344
11.3958
9.2814
7.6173
6.32352
5.32704
4.55497
3.95208
3.47905
3.1045
2.79989
2.53879
2.29335
2.03047
1.70565
1.26009
0.630983
53.8544
54.9168
57.4299
61.5184
67.4005
75.4845
86.3388
100.615
118.874
141.027
164.282
181.47
179.985
157.406
126.999
99.7973
77.3787
59.2895
45.0807
34.3251
26.6781
20.3945
15.3072
11.8232
9.35206
7.44477
5.98728
4.90456
4.09518
3.48147
3.01652
2.66712
2.40533
2.20611
2.05069
1.9187
1.78474
1.60466
1.29811
0.713271
50.9991
51.947
54.1888
57.8865
63.3533
71.1796
82.3042
98.1444
120.799
153.241
186.866
223.545
226.63
188.814
143.825
109.856
81.7446
60.1068
44.0601
32.356
19.869
14.3929
11.256
9.34739
7.41853
5.6312
4.24985
3.22724
2.44035
1.82374
1.34754
0.990925
0.729138
0.539742
0.41519
0.347187
0.326118
0.321998
0.25591
-0.0717757
47.353
48.1126
49.9043
52.9033
57.4728
64.3098
74.6234
90.4882
115.508
157.017
225.36
302.27
320.293
219.288
148.184
107.772
72.9042
48.9839
33.0354
22.6544
15.5111
-1.79814
-0.0111789
2.20387
2.11111
1.42556
0.875142
0.439182
0.0505813
-0.286601
-0.562281
-0.769061
-0.91753
-1.01277
-1.04459
-0.999172
-0.854261
-0.598876
-0.293179
-0.314283
43.1019
43.5976
44.7434
46.6859
49.7431
54.533
62.1939
74.9012
97.07
148.132
236.529
419.38
566.659
205.135
154.942
106.914
60.6308
34.72
19.8071
10.7423
4.57053
-5.56761
-1.72746
-1.59334
-2.60431
-3.20847
-3.51342
-3.77404
-4.02212
-4.22433
-4.36879
-4.47164
-4.51792
-4.50892
-4.42738
-4.24034
-3.88808
-3.26376
-2.1835
-0.386437
38.5195
38.6857
39.0274
39.611
40.5972
42.2771
45.167
50.2294
59.2989
96.6982
171.262
404.802
1860.57
185.842
87.777
32.0996
13.2287
3.84553
-6.00441
-13.8788
13.9406
10.6535
3.79441
0.0153744
-1.72098
-2.72863
-3.46216
-3.9996
-4.36913
-4.61102
-4.75221
-4.82072
-4.82278
-4.7376
-4.53899
-4.17068
-3.53531
-2.46939
-0.755809
33.9434
33.7601
33.2325
32.33
31.0088
29.1327
26.3962
22.0971
14.4573
17.3405
5.23146
-133.273
-913.495
-973.502
-271.464
-81.4234
-38.1673
-24.1667
-17.884
-12.6686
-4.74767
-8.16935
-8.05687
-7.46453
-6.6238
-5.63946
-4.72956
-3.99002
-3.40395
-2.93255
-2.54755
-2.21763
-1.94873
-1.71288
-1.47593
-1.20938
-0.878225
-0.45133
0.0506891
0.353576
29.7602
29.2374
27.8942
25.6085
22.1713
17.1349
9.67889
-1.71785
-20.0032
-40.9232
-104.659
-232.474
-421.385
-444.187
-275.261
-148.001
-85.8753
-54.2028
-36.3676
-24.7657
-16.3503
-12.0557
-7.6603
-4.3963
-2.63615
-1.69462
-1.07265
-0.636773
-0.349212
-0.16603
-0.0455187
0.0392662
0.0996145
0.151038
0.209317
0.285113
0.38311
0.492509
0.551442
0.391173
26.3062
25.5008
23.491
20.1002
15.0261
7.68434
-2.90099
-18.3208
-41.2586
-76.4416
-125.586
-187.409
-243.066
-249.247
-199.898
-138.894
-94.0295
-65.5681
-46.849
-33.6561
-24.3723
-18.4902
-13.3219
-9.50316
-7.06164
-5.41737
-4.14854
-3.12151
-2.30059
-1.64835
-1.12375
-0.69626
-0.347586
-0.0641941
0.168113
0.353791
0.489034
0.554713
0.505964
0.280659
23.8584
22.8543
20.3839
16.2484
10.1194
1.39827
-10.8064
-27.6966
-50.7729
-81.5462
-119.916
-161.431
-193.909
-199.882
-174.306
-133.96
-97.8141
-71.5494
-52.8669
-39.0232
-28.6521
-20.9955
-15
-10.4435
-7.1412
-4.76323
-3.00842
-1.6953
-0.719425
-0.00294174
0.519266
0.896893
1.16436
1.34428
1.45273
1.494
1.46042
1.32892
1.0544
0.564778
22.5988
21.4896
18.7859
14.2831
7.6516
-1.68737
-14.5286
-31.7962
-54.3576
-82.5134
-114.876
-146.868
-170.235
-175.535
-159.375
-129.79
-99.1828
-74.3578
-55.6872
-41.5225
-30.6751
-22.4712
-16.2905
-11.632
-8.18745
-5.68548
-3.85687
-2.49444
-1.46775
-0.692381
-0.106581
0.335713
0.666022
0.904052
1.06064
1.13687
1.12364
1.00119
0.742978
0.34014
54.9477
55.9549
58.336
62.1346
67.4045
74.27
82.8315
93.0089
104.372
115.886
125.646
130.824
128.76
118.797
103.398
86.599
70.99
57.3483
45.7643
36.2095
28.5621
22.5407
17.8044
14.0953
11.2283
9.01518
7.30141
5.98351
4.98377
4.22072
3.63365
3.1794
2.82538
2.54298
2.3073
2.09183
1.86491
1.58992
1.21616
0.674705
53.9975
54.9901
57.3194
61.0505
66.2826
73.2124
82.0588
92.9258
105.623
119.333
132.108
139.765
137.654
124.757
105.73
86.5955
69.7592
55.4523
43.603
34.1262
26.8131
21.0408
16.4727
12.9665
10.3103
8.24826
6.62923
5.37388
4.423
3.69098
3.12484
2.68612
2.34561
2.07785
1.86214
1.67584
1.49453
1.28386
0.996465
0.556314
52.1369
53.0771
55.2731
58.8223
63.8998
70.8335
80.0722
92.1169
107.374
125.702
144.75
158.336
156.049
136.271
110.338
87.24
68.0696
52.4425
40.06
30.7443
24.5262
19.2161
14.314
10.7611
8.32723
6.52711
5.15884
4.13448
3.35482
2.7655
2.32004
1.98587
1.73996
1.55952
1.43163
1.34543
1.2904
1.23929
1.12675
0.765828
49.4236
50.2572
52.1967
55.3712
60.0368
66.6726
76.0335
89.2508
108.01
134.735
165.173
195.909
197.342
163.804
125.323
96.1361
71.687
52.8846
38.8843
28.8653
19.576
16.9036
11.5733
7.62068
4.9704
3.07401
1.7455
0.823049
0.155849
-0.331393
-0.6812
-0.920424
-1.07076
-1.15576
-1.17371
-1.11551
-0.967603
-0.721269
-0.400559
-0.178693
45.9692
46.6295
48.1525
50.6784
54.507
60.2084
68.7626
81.8555
102.456
139.251
197.414
263.606
277.474
187.725
129.608
93.551
62.3295
41.3534
27.4998
18.9338
15.6068
7.07271
5.09664
3.55263
1.86508
0.421761
-0.586808
-1.31384
-1.88674
-2.34226
-2.69864
-2.95761
-3.13774
-3.25386
-3.28571
-3.19138
-2.91685
-2.37462
-1.49486
-0.554521
41.9578
42.3734
43.307
44.8712
47.33
51.1871
57.365
67.6515
85.7239
130.921
210.208
375.552
508.509
173.549
154.147
94.7651
50.0119
26.168
12.8482
4.73158
-5.34938
-33.6472
-29.9179
-27.1982
-25.8359
-24.5256
-23.3397
-22.38
-21.5848
-20.883
-20.2392
-19.6527
-19.0835
-18.4905
-17.842
-17.0781
-16.0788
-14.5954
-12.0702
-7.10735
37.6321
37.7599
37.9666
38.3076
38.9163
40.0191
42.0244
45.7102
52.6199
85.7253
153.811
373.634
1782.59
277.335
72.1336
18.1519
0.134144
-7.92028
-13.582
-17.6452
-0.489846
-3.88542
-9.02447
-11.5998
-12.692
-13.2901
-13.6788
-13.8927
-13.9553
-13.9058
-13.79
-13.5818
-13.293
-12.9093
-12.3737
-11.5769
-10.2897
-8.07232
-4.2319
33.3433
33.1459
32.5697
31.582
30.1413
28.1199
25.2422
20.9006
13.6231
15.9701
5.62104
-119.232
-842.078
-868.837
-233.444
-72.7213
-39.125
-28.3433
-22.8441
-17.6838
-12.2125
-21.5221
-17.9253
-14.1715
-11.8958
-10.3049
-9.09051
-8.18617
-7.51567
-7.00508
-6.60372
-6.26713
-5.98079
-5.71126
-5.41816
-5.0507
-4.53764
-3.76782
-2.61861
-1.15464
29.4247
28.9168
27.6064
25.3833
22.0675
17.2745
10.3041
-0.120503
-16.4567
-35.1182
-90.8488
-202.817
-368.567
-385.474
-237.159
-129.186
-77.5521
-51.013
-35.6886
-25.7955
-20.1114
-19.2387
-12.805
-7.65064
-5.0757
-3.76315
-2.9143
-2.33029
-1.94662
-1.6971
-1.52654
-1.40235
-1.30605
-1.21044
-1.09544
-0.938286
-0.712
-0.391818
0.00343493
0.269781
26.1927
25.4273
23.5177
20.3073
15.5411
8.72028
-0.980102
-14.8881
-35.2335
-65.9546
-108.417
-161.394
-208.626
-213.952
-172.663
-121.69
-84.1602
-60.0734
-43.9308
-32.4723
-24.6419
-20.1766
-14.9945
-10.8116
-8.11485
-6.29906
-4.90269
-3.7856
-2.90636
-2.21886
-1.67573
-1.24022
-0.891471
-0.604172
-0.361009
-0.148168
0.0425212
0.207476
0.311871
0.253247
23.9061
22.9588
20.6337
16.7577
11.0533
3.01009
-8.12544
-23.3546
-43.9073
-70.9927
-104.411
-140.228
-168.169
-173.442
-151.99
-118.13
-87.5949
-65.1071
-48.8444
-36.6581
-27.5291
-20.8498
-15.4637
-11.1268
-7.86238
-5.46952
-3.68652
-2.3422
-1.33566
-0.59044
-0.0414591
0.361564
0.654202
0.863019
1.00608
1.09262
1.12168
1.07742
0.918532
0.54743
22.7325
21.6874
19.1514
14.9465
8.79298
0.197937
-11.5093
-27.0954
-47.2534
-72.1651
-100.549
-128.415
-148.722
-153.503
-139.983
-115.04
-89.0158
-67.6472
-51.3421
-38.8204
-29.1626
-21.8332
-16.2496
-11.9035
-8.58568
-6.123
-4.29486
-2.91471
-1.86242
-1.05961
-0.447725
0.0182947
0.37073
0.631704
0.814473
0.924227
0.9563
0.895079
0.713958
0.37564
52.9313
53.7971
55.8202
59.0266
63.4441
69.1486
76.1834
84.4266
93.4566
102.362
109.568
112.899
110.354
101.574
88.6334
74.6731
61.6696
50.1958
40.3166
32.0304
25.2722
19.879
15.6436
12.3484
9.79066
7.79068
6.22183
5.00265
4.08034
3.36652
2.81046
2.37668
2.03807
1.76587
1.54682
1.35961
1.17358
0.967695
0.700193
0.364679
52.0295
52.8812
54.8527
57.9865
62.347
68.0658
75.2739
83.9838
93.9401
104.36
113.549
118.561
115.85
104.87
89.3501
73.842
60.0802
48.1983
38.1636
29.928
23.322
18.1378
14.1087
11.0306
8.66233
6.79231
5.3018
4.1137
3.26721
2.59023
2.05958
1.64414
1.31751
1.05774
0.856069
0.694069
0.554158
0.413857
0.268682
0.12095
50.2667
51.0702
52.9124
55.8617
60.0432
65.6875
73.0948
82.5645
94.2604
107.853
121.414
130.165
126.883
110.661
90.2167
72.2088
57.1308
44.5228
34.2173
26.0709
19.6726
15.0447
11.2625
8.42468
6.2869
4.63645
3.3804
2.4595
1.69018
1.12444
0.700294
0.386603
0.163993
0.02016
-0.0712252
-0.108387
-0.0921491
-0.0260387
0.0712133
0.145236
47.7037
48.4108
50.0119
52.603
56.3712
61.6602
68.9905
79.101
93.026
112.06
137.092
158.768
157.939
130.989
100.797
77.9017
58.6282
43.5643
32.0324
23.4201
12.0658
9.30852
6.18194
3.64639
1.50958
-0.170929
-1.38328
-2.24593
-2.89964
-3.38107
-3.72286
-3.94697
-4.07645
-4.13305
-4.1111
-3.98853
-3.74151
-3.31702
-2.63138
-1.50668
44.4543
45.0028
46.2255
48.2223
51.2142
55.6133
62.0961
71.7951
86.6508
116.002
157.51
204.002
209.218
138.555
96.6187
69.7112
45.8531
29.5725
18.5702
11.7223
9.84815
-2.15793
-3.25021
-4.53476
-5.98233
-7.33947
-8.14563
-8.63046
-8.97424
-9.22038
-9.38324
-9.47685
-9.48647
-9.40941
-9.26435
-8.97612
-8.46786
-7.58721
-6.07685
-3.53147
40.6948
41.0235
41.7196
42.8597
44.6373
47.4048
51.7896
58.9768
71.3386
106.331
167.035
291.502
387.15
104.259
111.086
56.1248
20.3281
2.26047
-7.5599
-12.8149
-11.9595
-26.4459
-27.8134
-31.5329
-32.6198
-32.1411
-31.4774
-30.8195
-30.117
-29.3737
-28.6101
-27.8229
-27.0455
-26.2616
-25.3937
-24.3741
-23.0554
-21.0896
-17.6629
-10.7751
36.6682
36.7316
36.7851
36.8536
37.0261
37.4429
38.343
40.1714
43.8053
68.747
120.806
301.465
1588.55
255.951
-16.4087
-59.23
-68.0736
-69.4047
-67.6558
-62.5971
-35.7443
-35.1197
-37.2556
-37.434
-36.5256
-35.4939
-34.5068
-33.5199
-32.5296
-31.549
-30.6051
-29.6613
-28.6727
-27.6493
-26.4948
-25.0526
-22.9499
-19.3144
-11.8534
32.6785
32.4564
31.8217
30.7338
29.1485
26.9378
23.8358
19.3029
12.1589
12.8301
3.25925
-94.3097
-668.174
-660.92
-187.824
-75.1537
-51.0399
-41.7018
-35.9878
-30.5178
-27.6701
-30.6343
-26.9918
-23.2437
-20.8669
-19.0875
-17.6797
-16.5773
-15.69
-14.9515
-14.318
-13.7608
-13.2683
-12.7633
-12.2347
-11.6285
-10.8428
-9.69258
-7.83639
-4.60129
29.0386
28.5461
27.2665
25.1066
21.9179
17.3787
10.9188
1.55418
-12.4404
-28.4556
-73.2345
-159.199
-283.168
-296.049
-186.929
-107.166
-68.2032
-47.1529
-34.4088
-26.0908
-23.5638
-19.0275
-15.1869
-12.0044
-10.0324
-8.70972
-7.69931
-6.91144
-6.30083
-5.82093
-5.43296
-5.10893
-4.83415
-4.57463
-4.30657
-4.00085
-3.61358
-3.08335
-2.3286
-1.25565
26.0446
25.3224
23.5192
20.5034
16.072
9.81987
1.09351
-11.1219
-28.4671
-53.8268
-87.8867
-128.922
-164.324
-169.07
-139.139
-100.912
-71.933
-52.6296
-39.1499
-29.2709
-22.2967
-18.4585
-14.8423
-11.7792
-9.49084
-7.76732
-6.40065
-5.29873
-4.41473
-3.70472
-3.12978
-2.65835
-2.27059
-1.94019
-1.64849
-1.37881
-1.11811
-0.855727
-0.590064
-0.321345
23.9303
23.0454
20.8779
17.2854
12.0473
4.75269
-5.19357
-18.5546
-36.2141
-58.9562
-86.3829
-115.125
-137.289
-141.607
-125.408
-99.679
-75.6715
-57.3581
-43.6884
-33.1947
-25.1758
-19.2921
-14.7466
-11.1267
-8.33796
-6.23246
-4.63164
-3.40431
-2.46335
-1.74407
-1.19387
-0.772271
-0.44928
-0.201469
-0.0125205
0.127067
0.217813
0.25086
0.207452
0.0719499
22.8475
21.8727
19.5204
15.6415
10.0139
2.24271
-8.20093
-21.8973
-39.3208
-60.4824
-84.1923
-107.13
-123.7
-127.776
-117.423
-97.932
-77.1624
-59.6375
-45.8966
-35.1104
-26.6481
-20.1598
-15.2404
-11.4554
-8.55352
-6.35376
-4.68511
-3.40702
-2.42166
-1.66097
-1.07368
-0.619765
-0.269979
-0.0042224
0.190415
0.319787
0.380181
0.359473
0.245404
0.056247
50.9016
51.6194
53.2786
55.8845
59.4386
63.9694
69.4634
75.76
82.45
88.7506
93.4244
94.913
91.9286
84.4111
73.9725
62.8531
52.4464
43.1462
34.9959
28.0228
22.221
17.5226
13.8244
10.9927
8.80741
7.08052
5.71146
4.64283
3.82358
3.19108
2.70006
2.31819
2.02022
1.7836
1.59045
1.42072
1.24991
1.05279
0.796709
0.450222
50.0478
50.7519
52.36
54.8884
58.3664
62.8619
68.4191
74.9615
82.1748
89.3254
95.0354
97.2011
93.8032
84.7969
72.8942
61.0676
50.4502
41.0861
32.9672
26.1139
20.4593
15.901
12.3794
9.80117
7.85054
6.30726
5.08144
4.11848
3.37583
2.78861
2.32252
1.95279
1.65986
1.42629
1.23888
1.08446
0.945931
0.800984
0.620579
0.363159
48.3831
49.0413
50.5253
52.8673
56.1435
60.4879
66.0536
72.9409
81.077
89.9565
98.0445
101.955
97.3274
84.3882
69.4233
56.5669
45.6877
36.1635
28.0017
21.2269
15.6732
11.3679
8.69879
6.82623
5.22822
3.91799
2.93849
2.22953
1.69767
1.30525
1.01835
0.812683
0.67103
0.578748
0.525131
0.509409
0.529262
0.572163
0.600125
0.491559
45.9714
46.5388
47.7996
49.8027
52.6657
56.599
61.8895
68.8868
77.9752
89.44
101.362
109.243
102.102
81.3202
62.5449
49.4194
38.6613
29.5013
21.8647
15.3577
8.72142
2.47432
2.59248
3.00837
2.3582
1.42129
0.638952
0.0253507
-0.477888
-0.881914
-1.19206
-1.41717
-1.56681
-1.65119
-1.66668
-1.59682
-1.42268
-1.11706
-0.668318
-0.143818
42.9269
43.353
44.2699
45.7375
47.8843
50.9696
55.3603
61.6032
70.4584
90.753
112.233
132.623
125.358
82.7014
57.7116
44.1207
29.8859
19.1808
11.6001
6.06149
0.511855
-13.7107
-10.9337
-7.90184
-6.58645
-5.95795
-5.4989
-5.16155
-4.94832
-4.8221
-4.74597
-4.69295
-4.64448
-4.58425
-4.47547
-4.26818
-3.89556
-3.25136
-2.2234
-0.848311
39.4206
39.6536
40.1056
40.8189
41.9093
43.5758
46.1375
50.1266
56.4188
78.516
106.105
149.757
166.936
28.9443
20.1948
3.86562
-4.8846
-9.17189
-12.593
-15.2854
-21.8176
-14.594
-15.5944
-17.2304
-17.6238
-17.419
-17.1005
-16.7658
-16.4135
-16.0499
-15.6823
-15.2968
-14.9141
-14.5241
-14.0623
-13.4639
-12.615
-11.2787
-9.01055
-5.06859
35.6831
35.6829
35.5781
35.3715
35.105
34.8281
34.5962
34.4765
34.5256
48.6887
60.2759
131.12
175.488
-679.416
-124.748
-88.0534
-65.3454
-61.0082
-57.6069
-54.8232
-67.4341
-40.8356
-38.5089
-36.256
-34.2426
-32.3024
-30.6037
-29.1459
-27.8561
-26.694
-25.6383
-24.6727
-23.7752
-22.8863
-21.973
-20.9684
-19.7534
-18.0406
-15.1972
-9.59252
31.9934
31.7427
31.0473
29.8594
28.1314
25.7284
22.3805
17.5789
10.338
8.50356
-13.8969
-82.5422
-307.214
-258.677
-105.164
-56.2974
-35.906
-27.3287
-22.5072
-18.2543
-10.3505
5.10604
1.72436
-2.11951
-3.73173
-4.45126
-4.89589
-5.19014
-5.36521
-5.45584
-5.49219
-5.49847
-5.46842
-5.37607
-5.20666
-4.93615
-4.49759
-3.76782
-2.59228
-1.03123
28.6314
28.1516
26.9034
24.8089
21.7509
17.4654
11.4917
3.04225
-9.35328
-28.6661
-53.1996
-108.15
-178.199
-188.554
-128.774
-80.6455
-54.1492
-38.3468
-28.247
-20.7974
-10.8491
-1.96217
-2.93479
-4.30467
-4.23634
-3.69857
-3.18835
-2.76636
-2.4164
-2.13144
-1.90474
-1.72366
-1.57763
-1.45068
-1.31089
-1.13614
-0.902176
-0.578827
-0.182938
0.0776567
25.873
25.194
23.4962
20.679
16.5888
10.9131
3.16522
-7.37411
-21.7329
-41.2342
-66.4709
-94.8713
-118.237
-122.288
-104.277
-79.1743
-58.5562
-43.852
-33.0233
-24.4437
-17.1734
-12.1694
-9.32425
-7.25607
-5.40615
-3.87578
-2.71196
-1.84127
-1.18407
-0.686911
-0.311859
-0.0286735
0.183244
0.345761
0.481165
0.600599
0.707527
0.790471
0.793143
0.536273
23.928
23.1078
21.0989
17.7958
13.0335
6.50055
-2.23908
-13.7072
-28.4219
-46.6487
-67.7363
-89.1766
-105.217
-108.889
-98.4809
-80.6394
-63.1093
-48.9442
-37.8775
-29.0135
-21.8301
-16.2215
-11.8972
-8.6832
-6.25055
-4.38179
-2.95272
-1.86327
-1.03206
-0.398462
0.0819718
0.443499
0.712091
0.908043
1.04561
1.13169
1.16165
1.11403
0.93831
0.527482
22.9326
22.0296
19.8666
16.3211
11.2308
4.29838
-4.86164
-16.6367
-31.2727
-48.5855
-67.4656
-85.3343
-98.0687
-101.492
-94.4036
-80.3422
-64.7506
-51.0224
-39.834
-30.7662
-23.417
-17.5784
-13.0603
-9.6309
-7.00524
-4.96456
-3.37754
-2.15063
-1.20635
-0.482042
0.0705799
0.488431
0.799632
1.02413
1.17418
1.25477
1.25884
1.16563
0.934835
0.498673
49.0001
49.5748
50.89
52.9359
55.6866
59.1316
63.2124
67.7463
72.3554
76.3996
78.968
79.0363
75.8872
69.6652
61.5174
52.9154
44.779
37.3915
30.8071
25.0825
20.2584
16.3232
13.2122
10.7973
8.89127
7.35115
6.10678
5.1154
4.33441
3.71839
3.23004
2.84052
2.52611
2.26562
2.03956
1.82831
1.60733
1.3471
1.01141
0.558794
48.1912
48.7525
50.0165
51.9845
54.6428
58.0127
62.0679
66.6715
71.4889
75.8813
78.8253
79.0209
75.4638
68.4096
59.5804
50.7738
42.7129
35.4421
28.9933
23.4495
18.8369
15.1348
12.2942
10.1329
8.41573
7.0131
5.87454
4.95923
4.22396
3.62877
3.1442
2.74812
2.42208
2.14906
1.91353
1.70052
1.48917
1.251
0.94594
0.5228
46.6176
47.1354
48.2786
50.0603
52.5035
55.6645
59.5811
64.2099
69.3234
74.3321
78.0139
78.4371
73.7648
64.6533
54.5299
45.7084
38.0679
31.0986
24.8979
19.6447
15.3728
12.1463
10.0034
8.31966
6.79186
5.4833
4.45429
3.66811
3.06181
2.5911
2.22714
1.94719
1.7333
1.57059
1.44683
1.35248
1.27321
1.18194
1.02255
0.673061
44.3467
44.7819
45.7184
47.1774
49.2183
51.9356
55.44
59.8091
65.0007
70.6218
75.331
76.1886
69.5281
56.8459