/*--------------------------------*- C++ -*----------------------------------*\
| =========                 |                                                 |
| \\      /  F ield         | OpenFOAM: The Open Source CFD Toolbox           |
|  \\    /   O peration     | Version:  2306                                  |
|   \\  /    A nd           | Website:  www.openfoam.com                      |
|    \\/     M anipulation  |                                                 |
\*---------------------------------------------------------------------------*/
FoamFile
{
    version     2.0;
    format      ascii;
    arch        "LSB;label=32;scalar=64";
    class       surfaceScalarField;
    location    "1.85";
    object      phi;
}
// * * * * * * * * * * * * * * * * * * * * * * * * * * * * * * * * * * * * * //

dimensions      [0 3 -1 0 0 0 0];

oriented        oriented;

internalField   nonuniform List<scalar> 
338621
(
24.9949
0.00228497
0.00150183
24.9871
0.00479802
0.0030836
24.9747
0.00762116
0.0048753
24.9572
0.0106387
0.00701462
24.9336
0.0139742
0.00980627
24.9004
0.0200432
0.0134084
24.8531
0.0296282
0.0179184
24.7895
0.0403292
0.023628
24.7269
0.0322079
0.0307458
24.683
0.00503022
0.0391564
24.6541
-0.0194843
0.048706
24.5799
0.0156399
0.0589185
24.6084
-0.0977149
0.0694614
24.739
-0.209722
0.0793073
24.7814
-0.129811
0.0877268
24.8146
-0.12716
0.0942727
24.8444
-0.128609
0.0990316
24.8689
-0.126847
0.102618
24.8896
-0.125848
0.105271
24.9174
-0.135039
0.107389
24.9482
-0.139672
0.108957
24.9716
-0.133788
0.110353
24.9896
-0.129587
0.11167
25.0041
-0.127326
0.112797
25.0162
-0.12599
0.113901
25.0262
-0.124933
0.114998
25.0346
-0.124449
0.116009
25.0417
-0.12395
0.116908
25.0475
-0.123563
0.11777
25.0524
-0.123522
0.118546
25.0568
-0.123556
0.119198
25.0608
-0.123661
0.119684
25.0644
-0.123754
0.120099
25.0678
-0.123824
0.120413
25.0711
-0.123885
0.120579
25.0748
-0.124239
0.120625
25.0786
-0.124388
0.12051
25.0829
-0.124529
0.120317
25.0876
-0.12472
0.120012
-0.12524
0.119349
24.9949
0.0045518
0.0014696
24.987
0.00973984
0.00297993
24.9742
0.0157826
0.00473718
24.9566
0.0215495
0.00684138
24.933
0.0281912
0.0095909
24.903
0.0371895
0.0130648
24.8667
0.0485393
0.0176006
24.8203
0.0636584
0.0233728
24.755
0.0671742
0.0306408
24.6795
0.0413189
0.0394338
24.6359
-0.0253678
0.0497179
24.6222
-0.031173
0.0607204
24.6607
-0.208977
0.0728791
24.7451
-0.377976
0.0840486
24.8261
-0.303882
0.093251
24.8953
-0.296359
0.100169
24.9486
-0.286809
0.105113
24.9919
-0.278735
0.108758
25.038
-0.283407
0.111523
25.0731
-0.283645
0.113609
25.0943
-0.276163
0.115278
25.1095
-0.265586
0.116642
25.1198
-0.257849
0.117944
25.1278
-0.254355
0.11907
25.1336
-0.251917
0.12012
25.138
-0.250346
0.121082
25.1406
-0.249046
0.122015
25.1425
-0.248727
0.122861
25.144
-0.248735
0.123646
25.1448
-0.24869
0.124355
25.1453
-0.24902
0.124969
25.1454
-0.24918
0.125478
25.1456
-0.249886
0.1259
25.1459
-0.250338
0.126218
25.1464
-0.250796
0.12642
25.1471
-0.251527
0.126548
25.1483
-0.252049
0.126508
25.15
-0.252623
0.126409
25.1526
-0.25349
0.126154
-0.253783
0.125589
24.9952
0.00649158
0.00139112
24.9874
0.0147879
0.00281518
24.9753
0.0235587
0.00444127
24.9571
0.0333905
0.00650477
24.9324
0.0439007
0.00913736
24.9007
0.0564973
0.0125318
24.8602
0.072191
0.0170709
24.8103
0.0908523
0.022926
24.7405
0.106647
0.0305539
24.6416
0.100189
0.0402371
24.564
0.00545249
0.0520481
-0.00600245
0.00581367
-0.00486294
24.6599
-0.0387266
0.0658761
-0.0585536
-0.0377113
-0.0579021
24.5521
-0.0113855
0.0791858
-0.0958458
0.0212223
-0.0944275
24.7253
-0.1828
0.0921876
-0.124756
-0.212734
-0.123141
24.8198
-0.129794
0.10198
-0.122479
-0.12772
-0.120235
24.8817
-0.118853
0.108879
-0.116845
-0.116465
-0.114826
24.9366
-0.114799
0.113643
-0.114924
-0.113033
-0.112467
25.0032
-0.117153
0.117169
-0.11604
-0.115218
-0.11405
25.0471
-0.113484
0.119936
-0.112053
-0.111538
-0.110134
25.0737
-0.109635
0.122024
-0.108566
-0.107627
-0.106492
25.093
-0.419111
0.123685
25.108
-0.405633
0.125019
25.1174
-0.393535
0.126285
25.1244
-0.388814
0.127469
25.1297
-0.385807
0.128552
25.1333
-0.383399
0.129462
25.1353
-0.381273
0.130211
25.1366
-0.380845
0.130834
25.1367
-0.380129
0.131357
25.1367
-0.380486
0.131807
25.136
-0.38056
0.13219
25.1354
-0.381042
0.132518
25.1344
-0.381652
0.132749
25.1336
-0.382579
0.133027
25.1327
-0.383072
0.133178
25.132
-0.384143
0.133319
25.1319
-0.385312
0.133331
25.1324
-0.386388
0.133296
25.1333
-0.387484
0.133118
-0.38845
0.132664
24.9955
0.00871817
0.00127046
24.9887
0.0191268
0.00256929
24.9768
0.0315093
0.00403204
24.9597
0.0445786
0.00596498
24.9349
0.0604679
0.00840055
24.9
0.0798202
0.0116329
24.854
0.102427
0.0160033
24.7951
0.12806
0.0218135
24.7277
0.144599
0.0296531
6.1404
0.0370972
0.0401338
0.054457
0.0385107
0.0547368
6.16254
6.13955
6.16063
6.12266
0.0173473
0.00584721
-6.10938
6.09701
-0.0340192
0.00765834
-6.10075
6.12211
-0.0423396
0.00957561
-6.11435
6.14134
-0.221423
0.0116089
-6.16026
6.17481
-0.157483
0.013126
-6.18833
6.19926
-0.143817
0.0140327
-6.21074
6.22518
-0.143901
0.0146668
-6.23724
6.24455
-0.139624
0.0151565
-6.25048
6.25583
-0.134397
0.0155569
-6.26042
6.26463
-0.129792
0.0159348
25.1042
-0.143356
0.133658
-0.144493
-0.141712
-0.143421
-6.26847
-6.27311
-6.26905
-6.27339
25.112
-0.548676
0.135185
25.116
-0.533949
0.136432
25.1193
-0.52958
0.137407
25.1201
-0.524864
0.138257
25.1188
-0.521016
0.13892
25.1168
-0.518685
0.139403
25.1134
-0.517144
0.139752
25.1089
-0.515647
0.140007
25.1035
-0.515347
0.140201
25.0978
-0.515154
0.140349
25.0915
-0.51521
0.140467
25.0847
-0.515393
0.14052
25.0779
-0.516431
0.140664
25.0712
-0.517042
0.140694
25.0643
-0.518029
0.140732
25.0577
-0.519344
0.140642
25.0514
-0.520522
0.140429
25.0465
-0.522618
0.140057
-0.523582
0.139313
24.9972
0.00927388
0.00110821
24.9912
0.0229555
0.00223859
24.9813
0.0379378
0.00350556
24.9657
0.0550472
0.00520178
24.9426
0.0762903
0.0073443
24.9089
0.103424
0.0102058
24.8586
0.138804
0.014077
24.7838
0.18356
0.0194034
6.17062
0.234119
0.026645
6.16333
6.1704
6.16334
6.15439
0.0493614
0.0039686
6.12852
0.00552394
-6.15675
0.0203498
0.011984
0.0118202
0.0204499
-0.0418952
-6.07533
6.04064
0.00748286
-0.00189315
0.00435461
0.00399596
-0.00173262
0.022456
-6.03972
6.05767
0.00982834
0.0291492
-0.0400786
-0.0402927
-0.0190837
0.042468
-6.10995
6.13551
0.0125645
-0.0523796
-0.0670143
-0.104914
-0.0528359
0.23897
-6.16861
6.18132
0.0139534
-0.0511645
-0.055136
-0.0543997
-0.0516317
0.18565
-6.19356
6.20733
0.014512
-0.0511291
-0.050536
-0.0503551
-0.0512796
0.175021
-6.22107
6.23289
0.0148487
-0.048978
-0.0489972
-0.0489065
-0.0490826
0.169292
-6.24246
6.24961
0.0151875
-0.0461996
-0.0460497
-0.0460156
-0.0462311
0.162145
-6.25593
6.26053
0.0156411
-0.0438147
-0.0437872
-0.043858
-0.0437291
0.154939
-6.26471
6.26701
0.0162553
-0.0419109
-0.0419604
-0.0421458
-0.0417045
0.149153
-6.27032
6.27258
-0.162982
0.0173622
25.0521
-0.65349
0.135207
-6.2732
-6.26655
-6.27404
-6.2687
25.028
-0.64589
0.13604
25.0012
-0.638414
0.135556
24.9737
-0.631585
0.134217
24.947
-0.626765
0.13246
24.9209
-0.623119
0.130523
24.8954
-0.620184
0.128554
24.8711
-0.618041
0.12666
24.8473
-0.616428
0.124893
24.8244
-0.615515
0.123286
24.8025
-0.615149
0.121845
24.7817
-0.615078
0.120532
24.7613
-0.615483
0.119438
24.7421
-0.616283
0.118415
24.7238
-0.617229
0.117461
24.7066
-0.618564
0.116476
24.6909
-0.620218
0.115362
24.6769
-0.622683
0.114041
-0.626738
0.112256
24.9999
0.00785533
0.00090804
24.9965
0.0245466
0.00183525
24.9888
0.042715
0.00287656
24.977
0.062742
0.00420031
24.9593
0.0881372
0.00593739
24.932
0.122512
0.008206
24.8887
0.170981
0.011215
24.816
0.240913
0.0153721
6.1704
0.348579
0.0208933
6.17001
6.17037
6.16985
-0.0654536
6.14466
0.088092
0.00310169
-0.0198081
-1.52745
1.52226
0.0244133
0.000578458
-0.0197681
-1.5039
1.49169
0.031243
0.000725895
-1.46782
0.0519157
1.47758
-0.0628231
0.00113829
-1.52875
0.0848419
1.53741
-0.0948485
0.00134712
-1.53618
0.0623205
-0.0666721
0.0019995
1.53853
-1.54826
0.0598482
-0.0646345
0.00219443
1.55086
0.0565534
-1.55655
1.55795
-0.0601722
0.002214
0.05188
-1.56071
1.5612
-0.0544818
0.00211222
0.0487269
-1.56174
1.56181
-0.0507302
0.00192665
0.0461686
-1.56124
1.56089
-0.0475493
0.0017335
-1.55423
0.178222
6.15688
-0.171436
0.0174382
-1.53898
-1.55306
-1.53483
23.836
-0.740877
0.0684919
-6.09886
-5.80588
-6.10917
-5.80316
23.8469
-0.72501
0.0681416
23.8561
-0.71471
0.0670895
23.8656
-0.706302
0.0652656
23.8753
-0.699645
0.0631956
23.8852
-0.694206
0.061109
23.8957
-0.68974
0.0590546
23.9067
-0.686056
0.0570299
23.9183
-0.683058
0.0550216
23.9304
-0.680608
0.0530194
23.9428
-0.678564
0.051016
23.9557
-0.676954
0.0489852
23.9688
-0.675571
0.0469884
23.9819
-0.674331
0.0449608
23.9951
-0.673391
0.0428926
24.0083
-0.672501
0.0407419
24.0214
-0.671704
0.0384331
24.0338
-0.670965
0.0358815
-0.669819
0.0331475
25.003
0.00396409
0.000681921
25.0036
0.0226462
0.00136997
25.0007
0.0434606
0.00214535
24.995
0.0653909
0.0030572
24.9862
0.0926953
0.00422782
24.9727
0.130293
0.00574133
24.9531
0.182982
0.00760319
24.9222
0.261868
0.00995633
6.21337
0.388781
0.0126678
6.22152
6.21311
6.22134
-0.106484
6.19799
0.12006
0.00179956
-0.0395903
-1.5421
1.53595
0.0454376
0.000305664
-0.0828282
-1.50646
1.48789
0.101096
0.000303453
0.00431456
-0.0746124
0.0747856
-0.00450676
1.89495e-05
-0.0213783
0.000449095
0.02089
3.02958e-06
3.61439e-05
-0.243632
0.0187783
-0.0289564
0.000191109
0.253619
-1.23071
0.0702411
-0.0840635
-0.00269115
1.24723
0.0621242
-1.27949
1.28538
-0.0660242
-0.00198791
0.0573288
-1.30418
1.31063
-0.0627731
-0.00100286
0.0511581
-1.32714
1.33249
-0.0561293
-0.000382131
0.046691
-1.34673
1.35253
-0.052402
-9.6935e-05
-1.3936
0.200535
5.84412
-0.217661
-0.0150998
-1.49744
-1.42016
-1.5007
24.1148
-0.669009
-0.111916
-5.89029
-6.17435
-5.83835
-6.17177
24.1445
-0.644654
-0.110047
24.1702
-0.633598
-0.106854
24.1936
-0.626078
-0.103567
24.2145
-0.620084
-0.100453
24.2335
-0.615685
-0.0975822
24.2515
-0.61261
-0.0951314
24.2689
-0.610362
-0.0930948
24.2861
-0.608718
-0.0915247
24.3033
-0.607424
-0.0903952
24.3208
-0.606299
-0.0896868
24.3384
-0.605314
-0.0892768
24.3563
-0.604305
-0.0891905
24.3745
-0.603203
-0.0892768
24.3925
-0.601908
-0.0895565
24.4107
-0.600609
-0.0900235
24.4286
-0.59898
-0.0906652
24.4459
-0.596764
-0.0915085
-0.593068
-0.0923311
25.0048
-0.000950198
0.000453656
25.01
0.0164635
0.000899198
25.015
0.0371307
0.00136307
25.019
0.059473
0.00188359
25.021
0.0882248
0.00243959
25.0263
0.121924
0.00308744
25.0387
0.166835
0.00367524
25.0653
0.231262
0.0040067
6.27487
0.33248
0.00370344
6.28267
6.27525
6.28505
-0.111979
6.28281
0.103674
0.000371215
-0.0447641
-1.5782
1.57994
0.0430064
1.1806e-05
-0.084458
-1.59874
1.61388
-0.000170628
0.069489
-0.0257832
-1.71465
1.75375
-0.00145262
0.0558055
-0.0208545
-0.0258751
-0.0209309
0.101711
-1.7129
1.68296
-0.00109438
-0.0706706
0.102393
-1.60874
-0.00158509
1.5983
-0.0903603
0.077792
-1.58411
-0.00172287
1.58126
-0.0732188
0.056377
-1.57681
1.57592
-0.0536936
-0.00180091
0.056902
-1.57431
1.57255
-0.0533072
-0.00183046
0.0511576
-1.57224
1.57161
-0.0486895
-0.00184185
0.0475387
-1.57073
1.57026
-0.0451982
-0.00186469
-1.568
0.179271
6.26599
-0.15853
-0.0160298
-1.56748
-1.56768
-1.56754
25.0741
-0.538952
-0.1246
-6.26947
-6.26923
-6.27114
-6.26971
25.0748
-0.521072
-0.124274
25.0719
-0.507435
-0.123283
25.0682
-0.500172
-0.12216
25.0647
-0.495418
-0.12119
25.0617
-0.492268
-0.12037
25.059
-0.490104
-0.119824
25.0564
-0.48831
-0.119496
25.0545
-0.487375
-0.119414
25.0529
-0.486297
-0.119544
25.0516
-0.485041
-0.119897
25.0507
-0.484174
-0.12028
25.0502
-0.482949
-0.12083
25.0496
-0.481267
-0.121386
25.0497
-0.479947
-0.122046
25.0501
-0.478208
-0.12281
25.051
-0.476144
-0.12369
25.0524
-0.473484
-0.12474
-0.470429
-0.125855
25.0057
-0.00594327
0.000207074
25.0142
0.00757647
0.00042347
25.0272
0.023459
0.000611333
25.0386
0.047291
0.000740422
25.0541
0.071911
0.000765469
25.0778
0.0975365
0.000584514
25.1161
0.128407
3.19488e-05
25.18
0.168639
-0.00135578
6.32108
0.23091
-0.00407105
6.31921
6.32546
6.31972
-0.0887648
6.33736
0.0733098
-0.00082844
-0.0332406
6.4144
0.0877956
-0.00176955
-0.0344314
-0.0334314
-0.0340994
-6.36524
-0.033287
6.51885
0.0752354
-0.00357921
-0.0259758
-0.0332323
-0.0259728
-6.47202
-0.00674522
-6.54953
6.51529
-0.00730837
-0.00641296
0.0157582
-0.00704562
0.0460322
0.0462267
-6.53629
6.51376
-0.125439
-0.00943458
0.0400092
0.0369014
0.0343122
0.0554176
-6.44876
6.41093
-0.178497
-0.0115085
0.0559785
0.0577115
0.0587473
0.0563504
-6.37102
6.33906
-0.175535
-0.012933
0.0550191
0.0553688
0.053689
0.046348
-6.32126
6.31039
-0.156609
-0.0140159
0.0453793
0.0452242
0.044536
0.0441995
-6.30208
6.29651
-0.155139
-0.0147493
0.0439478
0.0437802
0.043535
0.0411328
-6.29232
6.28715
-0.142039
-0.0151836
0.0406231
0.0406458
0.0400055
0.0381892
-6.28304
6.27771
-0.129879
-0.0154421
0.0377186
0.0376818
0.0370706
0.14139
-6.27622
6.27431
-0.123776
-0.0157029
25.076
-0.401569
-0.127105
-6.27174
-6.27167
-6.27194
-6.2709
25.0675
-0.385988
-0.126551
25.0627
-0.376689
-0.125935
25.0589
-0.370985
-0.125402
25.056
-0.367557
-0.124944
25.0535
-0.365277
-0.124541
25.0516
-0.363959
-0.124212
25.0503
-0.363071
-0.123968
25.0492
-0.36242
-0.123801
25.0484
-0.361816
-0.123699
25.0479
-0.360917
-0.123677
25.0478
-0.360381
-0.123658
25.0476
-0.359145
-0.123626
25.0483
-0.358294
-0.123658
25.049
-0.356922
-0.123745
25.0499
-0.355174
-0.123889
25.0516
-0.353705
-0.124154
25.0546
-0.35187
-0.124605
-0.350122
-0.125292
25.0063
-0.0109146
4.8939e-05
25.0162
-0.0023768
6.92263e-05
25.0251
0.0144915
-8.58219e-06
25.0418
0.0307599
-0.00019203
25.0686
0.0456223
-0.000622306
25.1023
0.0650973
-0.0014399
25.1502
0.083175
-0.00287461
25.2173
0.106802
-0.00539277
25.3269
0.13066
-0.00965281
25.4329
0.144322
-0.0165216
-0.0610081
-0.0566916
-0.0588444
-0.057518
25.5819
0.131381
-0.0268679
-0.060407
-0.0637571
-0.0620155
-0.0674981
25.7162
0.0523627
-0.0415203
-0.0413228
-0.0271762
-0.0454266
-0.0312475
25.593
-0.159957
-0.0592094
0.0226305
0.125821
0.0208685
0.173167
25.4994
-0.241895
-0.0779099
0.0849816
0.118549
0.100481
0.109474
25.4304
-0.251729
-0.0933657
0.0840869
0.149269
0.0328161
0.147846
25.3451
-0.354225
-0.104688
0.135717
0.138422
0.134231
0.135737
25.2619
-0.322279
-0.111793
0.128853
0.132258
0.12659
0.129369
25.1969
-0.330677
-0.11608
0.131331
0.128113
0.128026
0.124178
25.1549
-0.308199
-0.118565
0.120832
0.117559
0.117292
0.113138
25.1319
-0.288184
-0.119996
0.109944
0.109673
0.105051
0.106521
25.1131
-0.273201
-0.120787
0.10518
0.104502
0.102261
0.100912
25.0958
-0.263261
-0.121014
25.0851
-0.254282
-0.120995
25.0778
-0.248319
-0.121062
25.0721
-0.24404
-0.121299
25.0674
-0.241335
-0.121541
25.064
-0.240007
-0.121849
25.0607
-0.23847
-0.122198
25.0582
-0.237998
-0.122566
25.0559
-0.237191
-0.122938
25.0543
-0.236921
-0.123284
25.0533
-0.236376
-0.123598
25.0523
-0.235466
-0.123873
25.0521
-0.234919
-0.124023
25.0518
-0.233743
-0.124205
25.0519
-0.23269
-0.124341
25.0529
-0.231723
-0.124495
25.0545
-0.230611
-0.12472
25.0563
-0.228576
-0.125076
-0.226842
-0.125606
25.0066
-0.015597
-9.74512e-05
25.0097
-0.00533226
-0.000210125
25.0175
0.00714293
-0.000457405
25.0371
0.0118563
-0.000836242
25.0627
0.0213965
-0.00156071
25.0924
0.0380373
-0.00279913
25.1408
0.0393154
-0.00476925
25.2026
0.0525107
-0.00786088
25.2826
0.0630653
-0.0126995
25.3793
0.0671411
-0.0198327
25.4869
0.0533908
-0.0298267
25.567
0.0153101
-0.0431703
25.544
-0.0783055
-0.0587221
25.5289
-0.152357
-0.0745384
25.4059
-0.0406642
-0.0881904
25.3236
-0.173438
-0.0987412
25.2741
-0.167323
-0.105675
25.2134
-0.15994
-0.110197
25.1693
-0.151266
-0.112886
25.1379
-0.142386
-0.114521
25.1149
-0.134632
-0.11554
25.0967
-0.129005
-0.116078
25.0834
-0.124573
-0.116472
25.0735
-0.121608
-0.116803
25.0661
-0.119486
-0.117196
25.0606
-0.118288
-0.117516
25.0558
-0.117318
-0.117887
25.0525
-0.116891
-0.11827
25.0499
-0.116875
-0.118573
25.048
-0.116431
-0.118846
25.0467
-0.116503
-0.119046
25.0455
-0.116049
-0.119173
25.0452
-0.116022
-0.11918
25.0449
-0.115477
-0.119123
25.0454
-0.115246
-0.119024
25.0461
-0.114482
-0.118876
25.0473
-0.114151
-0.118726
25.0488
-0.113523
-0.118633
25.0516
-0.112667
-0.118676
-0.112752
-0.118947
24.9869
-0.000159689
24.9818
-0.000302131
24.9895
-0.00064085
25.0023
-0.00105566
25.0254
-0.00194083
25.0665
-0.00330661
25.111
-0.00544926
25.1719
-0.00876603
25.2484
-0.01379
25.336
-0.0208736
25.4194
-0.0304167
25.4771
-0.0426201
25.455
-0.0565247
25.373
-0.0706148
25.4152
-0.083102
25.3347
-0.0932843
25.2673
-0.100177
25.2117
-0.104551
25.1676
-0.107254
25.134
-0.10894
25.1094
-0.110048
25.0911
-0.110767
25.0779
-0.111297
25.0679
-0.111715
25.0607
-0.11222
25.0551
-0.112705
25.051
-0.113222
25.0479
-0.113801
25.0453
-0.114237
25.0435
-0.114659
25.042
-0.115022
25.0412
-0.115243
25.0405
-0.115337
25.0404
-0.115357
25.0405
-0.115357
25.0413
-0.115282
25.0423
-0.115178
25.0439
-0.115114
25.0464
-0.115173
-0.115457
24.9955
0.00156094
0.0028193
24.9887
0.0043474
0.00576285
24.9777
0.00698762
0.00915887
24.9616
0.0102625
0.0133111
24.94
0.0133294
0.018562
24.9104
0.0183736
0.0253498
24.868
0.0270405
0.0340713
24.81
0.0374387
0.0451436
24.7535
0.0294078
0.0588645
24.7162
0.00198469
0.0755308
24.6903
-0.0187862
0.0944472
24.6273
0.00768211
0.115074
24.656
-0.0945488
0.13604
24.7749
-0.194774
0.155945
24.8095
-0.118957
0.172861
24.836
-0.117249
0.185959
24.8611
-0.120857
0.195572
24.8815
-0.119806
0.202639
24.8988
-0.119356
0.20786
24.926
-0.131287
0.211825
24.9528
-0.132457
0.214841
24.9733
-0.127398
0.217386
24.9893
-0.123916
0.219667
25.0024
-0.122105
0.22179
25.0133
-0.12071
0.223813
25.0227
-0.120129
0.225748
25.0306
-0.119526
0.227581
25.0374
-0.11913
0.229279
25.0435
-0.119127
0.230845
25.049
-0.119218
0.232266
25.0538
-0.1191
0.233495
25.0579
-0.118994
0.234518
25.0621
-0.119383
0.235298
25.0664
-0.119725
0.235907
25.0702
-0.119515
0.236238
25.0742
-0.119811
0.236394
25.0784
-0.119799
0.2362
25.0827
-0.11983
0.235838
25.0877
-0.120099
0.235114
-0.120221
0.233523
24.9956
0.00315512
0.00274834
24.9888
0.00869953
0.00561539
24.9774
0.0145566
0.00893401
24.9613
0.0205785
0.013017
24.9393
0.0271883
0.0182077
24.9115
0.0349207
0.0249663
24.878
0.0450953
0.0337264
24.8349
0.0597444
0.045016
24.7714
0.0651235
0.0593167
24.6947
0.041928
0.0769977
24.6505
-0.0218588
0.0977087
24.588
0.0106038
0.120809
24.6234
-0.201043
0.144397
24.7567
-0.41033
0.166673
24.8395
-0.29294
0.185001
24.9096
-0.285391
0.198835
24.9617
-0.276122
0.208904
25.0032
-0.268178
0.21616
25.049
-0.274859
0.221539
25.0813
-0.275363
0.225516
25.1001
-0.264411
0.228561
25.1133
-0.254963
0.231116
25.122
-0.248067
0.233442
25.1284
-0.245006
0.235547
25.1336
-0.243224
0.237497
25.137
-0.241784
0.239338
25.1393
-0.240843
0.241104
25.1413
-0.241108
0.242786
25.1427
-0.241184
0.244371
25.1434
-0.241434
0.245826
25.1442
-0.242026
0.247118
25.1451
-0.24264
0.248217
25.1454
-0.242979
0.249148
25.1458
-0.243733
0.249836
25.1468
-0.244406
0.250293
25.1476
-0.244495
0.250502
25.1489
-0.245034
0.25044
25.1509
-0.245552
0.250099
25.1531
-0.245559
0.249448
-0.245997
0.247887
24.9957
0.00478249
0.00260191
24.9891
0.0129811
0.00531769
24.9778
0.022088
0.00847724
24.9612
0.0316554
0.0123959
24.9382
0.042335
0.0174325
24.908
0.054092
0.0240766
24.8696
0.0682561
0.0328666
24.8226
0.0858273
0.0444877
24.7564
0.102889
0.0597256
24.6608
0.0991739
0.0792705
24.5816
0.00596611
0.10333
-0.00399757
0.00667242
-0.00206547
24.7138
-0.0372429
0.130702
-0.057937
-0.0354342
-0.0556799
24.5716
0.0220075
0.158917
-0.0946799
0.0248934
-0.0911273
24.7352
-0.21418
0.18547
-0.123799
-0.210184
-0.119148
24.8281
-0.128379
0.205369
-0.121071
-0.123657
-0.11581
24.8901
-0.117662
0.21945
-0.116121
-0.112906
-0.11079
24.9452
-0.114575
0.229418
-0.113805
-0.109585
-0.108501
25.0108
-0.116476
0.236516
-0.115182
-0.111426
-0.109868
25.0532
-0.112803
0.241738
-0.111429
-0.107867
-0.10693
25.0792
-0.1093
0.245552
-0.107676
-0.105024
-0.102965
25.0979
-0.407772
0.248336
25.1109
-0.393804
0.250796
25.1195
-0.383423
0.253037
25.1257
-0.379477
0.25573
25.1303
-0.377183
0.257968
25.1333
-0.375519
0.260209
25.1354
-0.374451
0.261751
25.1361
-0.374367
0.263384
25.1361
-0.374732
0.264863
25.1364
-0.376131
0.266191
25.1356
-0.376405
0.26735
25.1349
-0.377733
0.26833
25.1347
-0.378911
0.268872
25.1339
-0.379591
0.269705
25.1331
-0.380453
0.270049
25.1328
-0.381052
0.270147
25.1328
-0.381622
0.269956
25.1331
-0.382028
0.269441
25.1344
-0.382346
0.268597
-0.382425
0.266846
24.9967
0.00607375
0.00237794
24.9904
0.0171605
0.00486287
24.9793
0.029633
0.00776608
24.9629
0.0428959
0.0113967
24.9397
0.058116
0.0161211
24.9065
0.076968
0.022442
24.8614
0.0987733
0.0310278
24.8029
0.123857
0.0427144
24.7346
0.142766
0.0586818
6.14212
0.0382842
0.0803735
0.053744
0.0389222
0.0543254
6.16233
6.14233
6.162
-0.011592
6.12481
0.0172871
0.0176063
-0.0153137
-6.11249
6.10033
-0.0330331
0.0232283
-0.0192647
-6.10397
6.09646
0.0194345
0.0292407
-0.023338
-6.11167
6.14378
-0.258434
0.0353808
-0.0264052
-6.16194
6.17621
-0.156272
0.0399953
-0.0283352
-6.18959
6.20078
-0.143414
0.0429206
-0.0296064
-6.21199
6.22653
-0.144413
0.0449267
-0.0305352
-6.23949
6.24678
-0.139636
0.0464044
-0.0312883
-6.25276
6.25806
-0.134364
0.0475262
-0.0319377
-6.262
6.26619
-0.130047
0.0484737
25.1083
-0.143147
0.274688
-0.143345
-0.142133
-0.139999
-6.2703
-6.27414
-6.27018
-6.27404
25.1165
-0.544564
0.277652
25.1205
-0.530125
0.27903
25.1233
-0.526593
0.281701
25.1237
-0.52352
0.284157
25.1217
-0.521331
0.286766
25.1189
-0.520833
0.288628
25.1147
-0.520911
0.29049
25.1094
-0.521495
0.292094
25.1029
-0.522884
0.293435
25.0962
-0.523907
0.294499
25.0891
-0.525389
0.295281
25.0815
-0.526362
0.295498
25.0742
-0.527516
0.295942
25.067
-0.528263
0.29573
25.0603
-0.528916
0.29529
25.0536
-0.528697
0.294368
25.0477
-0.528711
0.293014
25.0434
-0.529141
0.291138
-0.528408
0.288134
24.9984
0.0057631
0.00207703
24.9932
0.020433
0.00424642
24.9836
0.0361137
0.00678286
24.9688
0.053109
0.00996858
24.9465
0.0738667
0.0141449
24.9141
0.100369
0.0195305
24.8649
0.134749
0.0275613
24.7916
0.17848
0.0383596
6.17302
0.228801
0.0536699
6.16594
6.17361
6.16627
-0.00788344
6.15782
0.0493821
0.0120118
-0.0110524
6.13176
0.0169049
-6.1606
0.0201459
0.0114552
0.0202144
0.0113257
-0.0401328
-0.015079
-6.07857
6.04491
0.0232051
-0.00213656
0.00340233
-0.00227775
0.00350731
0.0228887
-0.0199819
-6.04311
6.05655
0.030751
0.0518489
-0.0407732
0.0513856
-0.0404871
-0.0464803
-0.0252623
-6.09665
6.13744
0.0385618
-0.0516114
-0.129684
-0.0523043
-0.129161
0.308401
-0.0281169
-6.16792
6.17926
0.0428843
-0.0507757
-0.0544414
-0.0514998
-0.0537168
0.184216
-0.0292402
-6.1929
6.20749
0.0447824
-0.0516442
-0.0513305
-0.0521111
-0.0508324
0.1758
-0.0298407
-6.22178
6.23402
0.0458982
-0.0495688
-0.0499529
-0.049865
-0.0496595
0.170744
-0.0304374
-6.24383
6.25104
0.0468176
-0.0463988
-0.0467471
-0.0467736
-0.046601
0.162864
-0.0312165
-6.25751
6.2619
0.0478374
-0.044078
-0.0442178
-0.0440346
-0.044236
0.155479
-0.0321643
-6.26619
6.26863
0.0489966
-0.0422377
-0.0421657
-0.0418044
-0.0423367
0.149216
-6.27143
-0.0330475
6.27365
-0.162648
0.0502938
25.0585
-0.665319
0.286758
-6.27502
-6.26904
-6.2758
-6.26958
25.0331
-0.655798
0.287069
25.005
-0.649595
0.28664
24.9756
-0.645413
0.285489
24.9467
-0.644004
0.284053
24.9179
-0.644003
0.282503
24.89
-0.644576
0.280155
24.8629
-0.645573
0.27782
24.8363
-0.646682
0.275277
24.811
-0.647831
0.27254
24.7869
-0.648909
0.269396
24.7642
-0.649704
0.26661
24.7427
-0.649982
0.263373
24.7229
-0.650082
0.260008
24.7045
-0.649537
0.256492
24.6882
-0.648583
0.252705
24.6737
-0.647395
0.248515
24.6614
-0.646548
0.243794
-0.646786
0.238072
25.0021
0.00226945
0.00171615
24.9998
0.0211403
0.00349014
24.9921
0.0412582
0.00555018
24.98
0.0614029
0.00812396
24.9624
0.0860386
0.01148
24.9363
0.119351
0.0154848
24.8938
0.166482
0.0221681
24.8221
0.23494
0.0307085
6.17223
0.341099
0.0430175
6.17142
6.17247
6.17154
-0.00613408
-0.0643899
6.14666
0.0865045
0.0095583
-0.00197955
-0.0192813
-1.52787
1.52261
0.0238862
0.00262642
-0.00289466
-0.0184025
-1.50423
1.49173
0.0300633
0.00369653
-0.00434892
-1.4692
0.0527926
1.47915
-0.0639495
0.00549708
-0.00621484
-1.52821
0.154071
1.53955
-0.167084
0.00784394
-0.00700196
-1.53595
0.0612977
-0.0655007
1.53805
0.0090725
-1.54764
-0.00658867
0.0607202
-0.0656317
0.00864548
1.55048
-0.00605554
0.0576323
-1.55636
1.55783
-0.0612372
0.00818605
-0.0059104
0.0525947
-1.56082
1.56136
-0.0551204
0.00788482
-0.00613296
0.0490026
-1.56211
1.56225
-0.0507449
0.00772543
-0.00656199
0.0460352
-1.56201
1.56179
-0.0469635
0.00770666
-1.55599
-0.025009
0.175604
6.16303
-0.165559
0.0397739
-1.54093
-1.55445
-1.53648
23.8211
-0.775573
0.143813
-6.10266
-5.79759
-6.09644
-5.78954
23.8391
-0.752809
0.147163
23.8537
-0.744736
0.147536
23.8673
-0.739044
0.145379
23.8797
-0.735299
0.141995
23.8913
-0.732598
0.13813
23.9029
-0.730453
0.133332
23.9145
-0.72859
0.12849
23.9262
-0.726875
0.123505
23.938
-0.725124
0.118467
23.9501
-0.723211
0.113223
23.962
-0.721132
0.108547
23.9739
-0.718719
0.103757
23.9856
-0.715949
0.0991401
23.9972
-0.712797
0.0946306
24.0085
-0.709268
0.0901277
24.0195
-0.705399
0.0853981
24.0301
-0.701225
0.0799859
-0.6966
0.0728957
25.009
0.000989158
0.00128776
25.0098
0.0191998
0.00262673
25.0064
0.0427013
0.00413369
24.9996
0.0653221
0.00596286
24.9896
0.0920047
0.00826951
24.976
0.127945
0.0107491
24.9566
0.17847
0.0151198
24.9262
0.255218
0.0200936
6.21376
0.380965
0.0267258
6.22212
6.21383
6.22254
-0.0035946
-0.104599
6.19829
0.118006
0.00564427
-0.00107844
-0.0391026
-1.54201
1.53586
0.0448916
0.00143004
-0.00145689
-0.0814543
-1.50595
1.4876
0.0994627
0.00178093
-0.000217052
0.00449296
-0.0748239
0.0750486
-0.00472492
0.000224491
-0.00282301
-0.211832
0.0125029
-0.022348
-7.8174e-05
0.224579
-1.21292
0.00195802
0.0689179
-0.0863113
-0.00471822
1.23308
0.00464885
0.0612576
-1.27197
1.27794
-0.0662677
-0.005611
0.00622148
0.0582627
-1.29428
1.29969
-0.0641493
-0.00574441
0.00675703
0.0513584
-1.31244
1.31665
-0.0567211
-0.00560026
0.00677677
0.045759
-1.32818
1.33372
-0.0523871
-0.00568222
-1.37885
0.0275261
0.195944
5.81242
-0.218465
-0.0405456
-1.49255
-1.40764
-1.49784
24.1355
-0.685812
-0.236645
-5.87143
-6.1716
-5.88389
-6.17363
24.1663
-0.659766
-0.233883
24.1954
-0.651924
-0.228758
24.2236
-0.647045
-0.223699
24.2501
-0.643535
-0.218727
24.2751
-0.641352
-0.213914
24.2992
-0.640175
-0.209424
24.3222
-0.639418
-0.205345
24.3443
-0.63879
-0.201692
24.3652
-0.63801
-0.19841
24.3849
-0.637098
-0.195451
24.4032
-0.636062
-0.192707
24.4203
-0.634744
-0.190206
24.4357
-0.632802
-0.187855
24.4494
-0.630406
-0.1857
24.4616
-0.627581
-0.183835
24.4724
-0.624345
-0.182523
24.4821
-0.620321
-0.182113
-0.61468
-0.18326
25.0083
-0.00405126
0.000881193
25.0153
0.0113084
0.00173399
25.022
0.0347353
0.00264951
25.0259
0.0596108
0.0036781
25.0252
0.0901979
0.00484068
25.0297
0.120594
0.00586479
25.0418
0.162489
0.00738776
25.0705
0.222144
0.00833131
6.27634
0.311723
0.00836557
6.28864
6.27789
6.29215
-0.000810406
-0.109519
6.28402
0.101386
0.0012842
-7.37431e-05
-0.0442529
-1.57806
1.57981
0.0424863
8.94074e-05
0.000430603
-0.0812145
-1.60044
1.61703
0.0647929
-0.000570719
0.00203505
-0.0260121
-1.71287
1.75047
0.0577295
-0.00128143
-0.0214219
-0.0269084
-0.0217031
0.00447306
0.112667
-1.71061
1.67953
-0.0803691
-0.00564321
0.107491
-1.60941
0.00495751
1.59845
-0.0947594
-0.00668667
0.00558199
0.0764396
-1.58372
-0.00745732
1.58156
-0.072376
0.00612403
0.0557294
-1.57818
1.57663
-0.052265
-0.00803827
0.00654162
0.0568104
-1.57569
1.57422
-0.0534812
-0.00840093
0.00688483
0.0506038
-1.57331
1.57263
-0.0481619
-0.00864921
0.00711958
0.0467902
-1.56976
1.57004
-0.045391
-0.00879943
-1.57004
0.0295025
0.179859
6.27454
-0.156992
-0.0456917
-1.57014
-1.57018
-1.57084
25.0843
-0.525861
-0.265028
-6.27687
-6.27044
-6.28122
-6.27521
25.0829
-0.518609
-0.263961
25.0786
-0.508889
-0.262062
25.0744
-0.503969
-0.261018
25.0705
-0.500398
-0.26045
25.0677
-0.498703
-0.260166
25.0653
-0.497494
-0.260172
25.0635
-0.496675
-0.26045
25.0622
-0.49596
-0.260944
25.0612
-0.494917
-0.261575
25.0603
-0.493885
-0.262279
25.0601
-0.492877
-0.263215
25.0597
-0.491513
-0.26364
25.059
-0.489268
-0.264227
25.0588
-0.487498
-0.264756
25.0587
-0.484951
-0.265368
25.0589
-0.482004
-0.266214
25.0594
-0.478148
-0.267455
-0.473943
-0.268983
25.0069
-0.00853721
0.000463425
25.017
0.000722845
0.000893973
25.0311
0.0199293
0.00124679
25.0394
0.0503266
0.00151607
25.057
0.0715348
0.00159558
25.0806
0.0960825
0.00128693
25.1187
0.12392
0.000231564
25.1843
0.157128
-0.00228223
6.32983
0.198364
-0.00747019
6.31889
6.33422
6.31771
-0.0861169
0.00154382
6.34822
0.0685253
-0.00237071
-0.0329798
0.00357162
6.42185
0.088016
-0.00519772
-0.0311144
-0.0332273
-0.0302988
-6.38067
-0.0294053
0.00729317
6.49383
0.0812504
-0.0106258
-0.0287068
-0.0285094
-0.0309977
-6.45405
-0.00877931
0.0127743
-6.54207
6.50094
-0.0598933
-0.0192348
0.0635984
-0.0100433
0.0629499
0.0360032
0.0194441
-6.49345
6.47482
-0.147068
-0.0289692
0.0525217
0.0352142
0.0517081
0.059129
-6.45104
0.0245304
6.40714
-0.185923
-0.0365547
0.0583587
0.0626026
0.0618568
0.0567233
0.0277076
-6.36684
6.33875
-0.179316
-0.0414643
0.0546846
0.0558655
0.053871
0.0461085
0.0298195
-6.32489
6.31786
-0.159671
-0.0446846
0.0453114
0.0454106
0.0447135
0.0444664
0.0311269
-6.31384
6.30618
-0.154158
-0.046641
0.044863
0.043821
0.044207
0.0434623
0.0317792
-6.29777
6.28908
-0.143074
-0.0476826
0.04094
0.0429127
0.0404019
0.0384129
0.0320886
-6.28187
6.27426
-0.125794
-0.0481568
0.0354495
0.0389517
0.036701
0.13695
-6.27292
0.0323358
6.27335
-0.121351
-0.0483397
25.0775
-0.382834
-0.264017
-6.2719
-6.26997
-6.2721
-6.26954
25.0705
-0.375757
-0.262411
25.0661
-0.369393
-0.260989
25.0622
-0.365157
-0.260341
25.0595
-0.362745
-0.259909
25.0569
-0.361074
-0.259578
25.055
-0.360468
-0.259347
25.0537
-0.360154
-0.259202
25.0525
-0.359434
-0.259112
25.0521
-0.359154
-0.259043
25.0517
-0.358216
-0.25894
25.0518
-0.357542
-0.259071
25.0515
-0.356295