/*--------------------------------*- C++ -*----------------------------------*\
| =========                 |                                                 |
| \\      /  F ield         | OpenFOAM: The Open Source CFD Toolbox           |
|  \\    /   O peration     | Version:  2306                                  |
|   \\  /    A nd           | Website:  www.openfoam.com                      |
|    \\/     M anipulation  |                                                 |
\*---------------------------------------------------------------------------*/
FoamFile
{
    version     2.0;
    format      ascii;
    arch        "LSB;label=32;scalar=64";
    class       volVectorField;
    location    "1.85";
    object      U;
}
// * * * * * * * * * * * * * * * * * * * * * * * * * * * * * * * * * * * * * //

dimensions      [0 1 -1 0 0 0 0];

internalField   nonuniform List<vector> 
111542
(
(99.9932 0.00529093 0.00301432)
(99.9706 0.0107501 0.0062722)
(99.9288 0.0163635 0.00987666)
(99.8667 0.0222976 0.01428)
(99.7827 0.0283058 0.0198538)
(99.6748 0.0336127 0.0270369)
(99.542 0.0363489 0.0360864)
(99.3866 0.0335237 0.0474897)
(99.2179 0.0204605 0.0617434)
(99.0562 -0.00931118 0.0788768)
(98.9348 -0.0615182 0.0984577)
(98.8945 -0.133833 0.119652)
(98.9616 -0.208018 0.141494)
(99.127 -0.264214 0.161875)
(99.3457 -0.291585 0.179067)
(99.5692 -0.299749 0.192612)
(99.7703 -0.297809 0.20263)
(99.9415 -0.290583 0.210003)
(100.083 -0.281088 0.215512)
(100.197 -0.271425 0.219887)
(100.287 -0.263024 0.223333)
(100.356 -0.256178 0.226241)
(100.408 -0.250689 0.229018)
(100.447 -0.246954 0.231541)
(100.477 -0.244785 0.233914)
(100.499 -0.243678 0.236374)
(100.516 -0.243663 0.238687)
(100.528 -0.244505 0.240836)
(100.537 -0.24579 0.242924)
(100.542 -0.24729 0.244888)
(100.547 -0.248876 0.246632)
(100.55 -0.250515 0.248042)
(100.553 -0.251998 0.249241)
(100.555 -0.253281 0.250236)
(100.558 -0.254385 0.251004)
(100.562 -0.255369 0.251523)
(100.568 -0.256338 0.251732)
(100.575 -0.257213 0.251779)
(100.585 -0.258073 0.2517)
(100.602 -0.259187 0.251565)
(99.9935 0.0157681 0.00295248)
(99.9713 0.0319854 0.00606829)
(99.93 0.049065 0.00962553)
(99.8682 0.0674222 0.0139728)
(99.7836 0.0864957 0.0194727)
(99.6723 0.104216 0.0265528)
(99.5312 0.115652 0.0356572)
(99.3599 0.111942 0.0473033)
(99.1642 0.0783553 0.0619735)
(98.9632 -0.00634479 0.0798636)
(98.7984 -0.159732 0.10076)
(98.7364 -0.375397 0.123151)
(98.8219 -0.600518 0.14692)
(99.0332 -0.762549 0.169345)
(99.2976 -0.842143 0.187959)
(99.55 -0.869089 0.202057)
(99.7663 -0.866296 0.212305)
(99.945 -0.847619 0.219834)
(100.089 -0.822439 0.225556)
(100.203 -0.796134 0.230059)
(100.29 -0.772235 0.233686)
(100.357 -0.753095 0.2368)
(100.406 -0.738717 0.23958)
(100.442 -0.72885 0.24206)
(100.469 -0.721687 0.244346)
(100.49 -0.716045 0.246571)
(100.505 -0.712193 0.24874)
(100.515 -0.710106 0.250848)
(100.523 -0.709302 0.252881)
(100.528 -0.70943 0.254788)
(100.532 -0.710281 0.256513)
(100.534 -0.711728 0.258019)
(100.536 -0.713454 0.259322)
(100.538 -0.715334 0.260433)
(100.541 -0.71736 0.261352)
(100.544 -0.719578 0.262084)
(100.549 -0.722096 0.262621)
(100.555 -0.724798 0.262994)
(100.564 -0.727728 0.263228)
(100.579 -0.730983 0.263439)
(99.9938 0.0258789 0.00279642)
(99.9727 0.0526037 0.00573352)
(99.933 0.0815108 0.00911674)
(99.8727 0.113519 0.0132772)
(99.7877 0.148412 0.0185852)
(99.6718 0.183897 0.0255049)
(99.5173 0.213667 0.0345873)
(99.3164 0.224043 0.0464771)
(99.0664 0.188235 0.0618691)
(98.7845 0.0574577 0.0813567)
(98.5305 -0.278325 0.105285)
(98.4169 -0.74282 0.132798)
(98.5401 -1.16363 0.158997)
(98.8468 -1.4043 0.183971)
(99.1944 -1.49999 0.203948)
(99.4969 -1.52423 0.218118)
(99.7414 -1.50421 0.227937)
(99.9337 -1.46349 0.235123)
(100.082 -1.41671 0.240785)
(100.195 -1.37023 0.245411)
(100.279 -1.32939 0.249157)
(100.34 -1.29368 0.252278)
(100.384 -1.27224 0.25488)
(100.418 -1.26333 0.257131)
(100.444 -1.25962 0.259159)
(100.463 -1.25765 0.261005)
(100.476 -1.25702 0.262681)
(100.484 -1.2576 0.264195)
(100.489 -1.25894 0.265565)
(100.491 -1.26073 0.266809)
(100.491 -1.26278 0.267943)
(100.49 -1.265 0.268995)
(100.488 -1.26727 0.270003)
(100.486 -1.26956 0.271014)
(100.484 -1.27192 0.272053)
(100.482 -1.27444 0.27313)
(100.482 -1.27723 0.274224)
(100.484 -1.28036 0.2753)
(100.488 -1.28379 0.27634)
(100.496 -1.28717 0.277464)
(99.9945 0.0351715 0.00255442)
(99.9754 0.0718727 0.00523129)
(99.9393 0.112554 0.00832587)
(99.8831 0.159337 0.012162)
(99.8014 0.213488 0.0171095)
(99.6844 0.274554 0.023649)
(99.5177 0.338369 0.0324053)
(99.2803 0.392414 0.0441611)
(98.9431 0.407001 0.0598806)
(98.4415 0.207067 0.0807454)
(98.1822 0.0280139 0.087384)
(97.8322 -0.629407 0.10281)
(97.8945 -1.43553 0.116807)
(98.3731 -1.95556 0.129413)
(98.8789 -2.10805 0.141536)
(99.2765 -2.13449 0.148896)
(99.5932 -2.09072 0.153155)
(99.8309 -2.01518 0.155912)
(100.007 -1.93589 0.158149)
(100.139 -1.86585 0.160298)
(100.311 -1.92688 0.265897)
(100.356 -1.85698 0.269748)
(100.374 -1.80734 0.271875)
(100.386 -1.77804 0.273233)
(100.396 -1.75973 0.274438)
(100.401 -1.74891 0.275567)
(100.399 -1.74401 0.276546)
(100.39 -1.74335 0.277341)
(100.377 -1.74551 0.277958)
(100.36 -1.74952 0.278423)
(100.341 -1.75476 0.278779)
(100.319 -1.76077 0.279094)
(100.295 -1.76724 0.279454)
(100.27 -1.77399 0.279938)
(100.244 -1.78092 0.280607)
(100.218 -1.78806 0.281475)
(100.193 -1.7955 0.282489)
(100.169 -1.80337 0.283546)
(100.148 -1.81165 0.284527)
(100.125 -1.81929 0.285442)
(99.9955 0.0429226 0.00222752)
(99.98 0.0882157 0.00455441)
(99.9503 0.139667 0.00724408)
(99.903 0.201158 0.0105905)
(99.8316 0.276588 0.014932)
(99.7246 0.369782 0.0207095)
(99.5623 0.483677 0.028523)
(99.3119 0.61714 0.0391427)
(98.8677 0.757116 0.0535592)
(98.522 0.765977 0.0587575)
(97.7054 0.378906 0.0716236)
(96.8939 -0.685279 0.0881907)
(96.9784 -2.34422 0.102586)
(98.1003 -2.96548 0.114675)
(98.8371 -3.00361 0.128062)
(99.3178 -2.94754 0.133704)
(99.6788 -2.81432 0.136265)
(99.9155 -2.6718 0.138407)
(100.072 -2.54804 0.141081)
(100.175 -2.45318 0.144924)
(100.247 -2.41172 0.153715)
(100.185 -2.53771 0.281317)
(100.068 -2.52224 0.279292)
(99.9541 -2.49301 0.275265)
(99.8502 -2.45975 0.270282)
(99.7487 -2.43071 0.264876)
(99.6483 -2.40719 0.259405)
(99.55 -2.38822 0.254164)
(99.4546 -2.373 0.249348)
(99.3621 -2.36111 0.245054)
(99.2727 -2.35219 0.241313)
(99.1864 -2.34588 0.238138)
(99.1034 -2.34183 0.235528)
(99.0237 -2.33974 0.233472)
(98.9474 -2.33934 0.231931)
(98.8747 -2.34044 0.230817)
(98.8058 -2.34298 0.229962)
(98.7414 -2.34718 0.22913)
(98.6833 -2.35384 0.22804)
(98.6264 -2.36526 0.226421)
(99.997 0.0482129 0.00182236)
(99.9867 0.0995987 0.00371722)
(99.9666 0.159238 0.00588789)
(99.9339 0.232876 0.00857014)
(99.8831 0.327512 0.0120261)
(99.8036 0.452638 0.0165844)
(99.6762 0.622147 0.022679)
(99.4643 0.856702 0.0308286)
(99.0437 1.18836 0.0416146)
(98.6334 1.35326 0.0458327)
(97.6764 1.50091 0.0436367)
(95.5577 0.740888 0.039957)
(94.3318 -3.40822 0.0544225)
(98.1116 -4.73874 0.0461568)
(98.6795 -4.00117 0.0716362)
(99.3002 -3.88758 0.0842337)
(99.6836 -3.61445 0.06936)
(99.827 -3.35173 0.0359661)
(99.848 -3.15052 -0.00616931)
(99.7914 -2.98068 -0.0460796)
(98.5751 -2.82555 0.123443)
(95.2091 -2.4446 0.170898)
(95.2539 -2.51712 0.168769)
(95.3148 -2.54835 0.164586)
(95.3652 -2.55978 0.158775)
(95.4083 -2.56533 0.151563)
(95.451 -2.56901 0.143313)
(95.4957 -2.57181 0.134344)
(95.5426 -2.57441 0.124906)
(95.5914 -2.57736 0.115191)
(95.6419 -2.58094 0.105352)
(95.6938 -2.58524 0.0955106)
(95.7471 -2.59027 0.0857568)
(95.8012 -2.59596 0.0761557)
(95.8558 -2.60222 0.0667385)
(95.9106 -2.60896 0.0574903)
(95.9653 -2.6161 0.0483376)
(96.0195 -2.62379 0.039152)
(96.0722 -2.63278 0.0298278)
(96.1305 -2.64565 0.0207484)
(99.9989 0.0501749 0.00136854)
(99.995 0.104025 0.00277234)
(99.9873 0.167475 0.00434408)
(99.9745 0.247537 0.00623315)
(99.9538 0.353401 0.00858219)
(99.9206 0.498854 0.011543)
(99.8666 0.706219 0.0152592)
(99.7776 1.01448 0.0197743)
(99.6062 1.49766 0.0248402)
(99.3388 1.90209 0.0269355)
(98.6208 2.84835 0.0241368)
(95.4747 5.87665 0.0187765)
(77.0272 -4.17212 0.0212725)
(102.603 -10.2747 0.0228589)
(61.8205 -6.22107 -0.304743)
(78.5554 -5.27571 0.0986375)
(81.6162 -4.33973 0.18931)
(83.5559 -3.76108 0.235695)
(84.9885 -3.33764 0.24342)
(86.2606 -3.07541 0.223601)
(93.1704 -3.70656 -0.0701696)
(96.3205 -3.28517 -0.226822)
(96.4561 -3.1711 -0.221609)
(96.5944 -3.08699 -0.214083)
(96.7028 -3.02344 -0.20674)
(96.791 -2.97306 -0.200485)
(96.8701 -2.93236 -0.195462)
(96.9449 -2.8992 -0.191693)
(97.0168 -2.87188 -0.189188)
(97.0872 -2.84898 -0.18793)
(97.1571 -2.82936 -0.187884)
(97.2274 -2.81217 -0.188996)
(97.2985 -2.79675 -0.191192)
(97.3706 -2.78262 -0.194373)
(97.4435 -2.76939 -0.19841)
(97.5169 -2.75679 -0.20316)
(97.5904 -2.74456 -0.208506)
(97.6634 -2.73234 -0.214338)
(97.7348 -2.71941 -0.220488)
(97.8185 -2.70362 -0.226227)
(100.001 0.0482305 0.000967254)
(100.004 0.100145 0.00184657)
(100.01 0.16178 0.00276992)
(100.019 0.240244 0.0037981)
(100.033 0.344901 0.00493832)
(100.054 0.489586 0.00613931)
(100.088 0.695949 0.00723013)
(100.152 1.00002 0.00776774)
(100.299 1.46419 0.00675095)
(100.351 1.87771 0.00638662)
(100.633 2.86846 0.0024567)
(102.475 5.40628 -0.00528015)
(111.275 3.86229 -0.0553322)
(109.067 -6.82887 0.0184444)
(102.742 -6.79455 -0.0446585)
(101.097 -4.95896 -0.0571215)
(100.666 -3.94874 -0.0501189)
(100.51 -3.39575 -0.0390792)
(100.438 -3.07663 -0.0300584)
(100.38 -2.89494 -0.0258187)
(100.292 -2.69874 -0.135363)
(100.306 -2.28681 -0.252462)
(100.288 -2.18656 -0.248337)
(100.273 -2.12932 -0.243644)
(100.261 -2.09878 -0.239621)
(100.248 -2.08147 -0.23667)
(100.236 -2.07186 -0.234784)
(100.225 -2.06756 -0.233928)
(100.216 -2.06677 -0.234054)
(100.208 -2.06799 -0.235057)
(100.201 -2.07015 -0.236792)
(100.196 -2.07251 -0.239108)
(100.192 -2.0746 -0.241864)
(100.19 -2.0761 -0.244949)
(100.188 -2.07679 -0.248287)
(100.188 -2.07647 -0.251848)
(100.189 -2.07495 -0.255659)
(100.192 -2.07187 -0.259773)
(100.197 -2.06639 -0.264218)
(100.208 -2.05644 -0.268787)
(100.003 0.0422481 0.000466761)
(100.012 0.0878022 0.000846041)
(100.031 0.141915 0.00118768)
(100.061 0.210668 0.00142301)
(100.105 0.301726 0.00143931)
(100.173 0.425393 0.00102391)
(100.277 0.595952 -0.00023273)
(100.446 0.832913 -0.00307918)
(100.767 1.16055 -0.00889297)
(100.994 1.4009 -0.011086)
(101.856 1.85709 -0.018745)
(103.482 1.75364 -0.0328816)
(105.269 -0.274081 -0.0508397)
(104.794 -2.86505 -0.0321116)
(102.978 -3.56706 -0.050558)
(101.76 -3.33264 -0.0664746)
(101.138 -2.96889 -0.0766128)
(100.808 -2.66434 -0.0829634)
(100.62 -2.43806 -0.0872658)
(100.497 -2.27186 -0.0906236)
(100.409 -2.14276 -0.0942827)
(100.311 -1.8621 -0.249923)
(100.277 -1.8305 -0.24856)
(100.252 -1.81002 -0.246857)
(100.235 -1.79842 -0.245457)
(100.223 -1.79148 -0.244547)
(100.213 -1.78668 -0.244105)
(100.205 -1.78299 -0.244081)
(100.198 -1.77974 -0.244413)
(100.193 -1.77635 -0.245026)
(100.19 -1.77237 -0.245846)
(100.187 -1.76757 -0.246812)
(100.186 -1.76183 -0.24788)
(100.186 -1.75515 -0.249028)
(100.187 -1.74755 -0.250256)
(100.189 -1.73907 -0.251592)
(100.193 -1.72973 -0.25309)
(100.199 -1.7195 -0.254827)
(100.207 -1.70835 -0.256908)
(100.226 -1.6966 -0.259502)
(100.004 0.0327583 9.88658e-05)
(100.019 0.0680949 0.000133939)
(100.048 0.109928 -4.38498e-05)
(100.094 0.162666 -0.000503597)
(100.161 0.231422 -0.00142275)
(100.261 0.322093 -0.00313247)
(100.408 0.440961 -0.00617217)
(100.628 0.592397 -0.0114079)
(100.965 0.772335 -0.0202354)
(101.455 0.85525 -0.0344069)
(102.099 0.754613 -0.0556391)
(102.777 0.221186 -0.0849836)
(103.134 -0.771326 -0.118457)
(102.881 -1.60042 -0.148896)
(102.235 -1.90006 -0.178897)
(101.604 -1.89816 -0.202303)
(101.16 -1.80606 -0.217442)
(100.875 -1.69631 -0.226627)
(100.685 -1.59349 -0.232283)
(100.553 -1.50395 -0.235799)
(100.461 -1.428 -0.237921)
(100.399 -1.3621 -0.238978)
(100.355 -1.31088 -0.23947)
(100.322 -1.27079 -0.239874)
(100.297 -1.24065 -0.240428)
(100.277 -1.21861 -0.241223)
(100.261 -1.20249 -0.242271)
(100.247 -1.19063 -0.243535)
(100.236 -1.18175 -0.244938)
(100.227 -1.17488 -0.246397)
(100.219 -1.16921 -0.24783)
(100.214 -1.16416 -0.249176)
(100.21 -1.15932 -0.250394)
(100.207 -1.15442 -0.251471)
(100.206 -1.14923 -0.25243)
(100.206 -1.14365 -0.253321)
(100.209 -1.13761 -0.254226)
(100.213 -1.13107 -0.255255)
(100.22 -1.1241 -0.256551)
(100.231 -1.11703 -0.2583)
(100.005 0.0207006 -0.000197947)
(100.024 0.0429349 -0.000501202)
(100.06 0.0692527 -0.00104385)
(100.116 0.102026 -0.00196939)
(100.198 0.144169 -0.00353349)
(100.315 0.19811 -0.00610155)
(100.479 0.26529 -0.010243)
(100.709 0.343122 -0.0167431)
(101.02 0.418468 -0.0266784)
(101.422 0.451651 -0.0412796)
(101.889 0.386248 -0.0616946)
(102.32 0.14771 -0.0884742)
(102.541 -0.273422 -0.119121)
(102.423 -0.701156 -0.149045)
(102.033 -0.941497 -0.175994)
(101.576 -0.996646 -0.197007)
(101.2 -0.9642 -0.211637)
(100.93 -0.907337 -0.220997)
(100.737 -0.849603 -0.226903)
(100.595 -0.797746 -0.230639)
(100.49 -0.754515 -0.233001)
(100.412 -0.722802 -0.234517)
(100.354 -0.701942 -0.235632)
(100.31 -0.689354 -0.236596)
(100.277 -0.682875 -0.237556)
(100.251 -0.680834 -0.238586)
(100.231 -0.681651 -0.239705)
(100.216 -0.684053 -0.24088)
(100.204 -0.687165 -0.242044)
(100.195 -0.690399 -0.243124)
(100.188 -0.693332 -0.244054)
(100.184 -0.695706 -0.244789)
(100.181 -0.697375 -0.245305)
(100.18 -0.698324 -0.245604)
(100.18 -0.698297 -0.245751)
(100.182 -0.697485 -0.245785)
(100.185 -0.695977 -0.245784)
(100.191 -0.693837 -0.24587)
(100.2 -0.691164 -0.246218)
(100.218 -0.687987 -0.247134)
(100.006 0.00707698 -0.000375803)
(100.026 0.0146438 -0.000801221)
(100.065 0.0236264 -0.00156679)
(100.126 0.0346719 -0.00268632)
(100.215 0.0488221 -0.00460262)
(100.339 0.0666311 -0.00761526)
(100.509 0.0880925 -0.01233)
(100.737 0.111689 -0.019414)
(101.029 0.132239 -0.0299265)
(101.38 0.137007 -0.044569)
(101.754 0.105999 -0.0640171)
(102.076 0.0187161 -0.088237)
(102.241 -0.120886 -0.115687)
(102.173 -0.264925 -0.143392)
(101.899 -0.355769 -0.167823)
(101.54 -0.38316 -0.187378)
(101.208 -0.376372 -0.201621)
(100.948 -0.359968 -0.211018)
(100.755 -0.343064 -0.217083)
(100.609 -0.32793 -0.221017)
(100.499 -0.315315 -0.223664)
(100.416 -0.305653 -0.225553)
(100.355 -0.298221 -0.227044)
(100.309 -0.292188 -0.2283)
(100.275 -0.286842 -0.229577)
(100.249 -0.28186 -0.230939)
(100.229 -0.277038 -0.232366)
(100.214 -0.272242 -0.233812)
(100.202 -0.26743 -0.235207)
(100.192 -0.262606 -0.236479)
(100.185 -0.25779 -0.237564)
(100.18 -0.253008 -0.238412)
(100.176 -0.248297 -0.238989)
(100.174 -0.243726 -0.239252)
(100.174 -0.239113 -0.239441)
(100.175 -0.234599 -0.23949)
(100.178 -0.230245 -0.239456)
(100.183 -0.226092 -0.239471)
(100.191 -0.222295 -0.239722)
(100.204 -0.219392 -0.240551)
(99.9937 0.00522961 0.00866886)
(99.9722 0.0105475 0.0179428)
(99.9324 0.0161158 0.0284574)
(99.8734 0.0219973 0.0413132)
(99.7935 0.0279352 0.0575603)
(99.6906 0.0331461 0.0784085)
(99.5639 0.0359422 0.104911)
(99.4156 0.0333616 0.13845)
(99.2548 0.0207159 0.180271)
(99.1005 -0.00832006 0.230618)
(98.9853 -0.0592973 0.288661)
(98.9491 -0.130373 0.351908)
(99.0169 -0.202277 0.416276)
(99.1792 -0.256087 0.476142)
(99.3926 -0.281969 0.526703)
(99.6098 -0.289507 0.5665)
(99.8045 -0.287292 0.596153)
(99.9694 -0.279872 0.617905)
(100.105 -0.270135 0.633934)
(100.212 -0.260353 0.646127)
(100.296 -0.251696 0.65553)
(100.359 -0.244587 0.66332)
(100.406 -0.239048 0.67049)
(100.441 -0.235315 0.67709)
(100.467 -0.233187 0.68324)
(100.486 -0.23228 0.689172)
(100.502 -0.232369 0.694583)
(100.514 -0.233218 0.699458)
(100.523 -0.234532 0.703926)
(100.53 -0.236066 0.707898)
(100.536 -0.237651 0.711236)
(100.541 -0.239175 0.7138)
(100.546 -0.240544 0.715731)
(100.551 -0.241712 0.717022)
(100.556 -0.242668 0.717615)
(100.562 -0.243449 0.717451)
(100.569 -0.244105 0.716433)
(100.577 -0.244673 0.714709)
(100.588 -0.245249 0.712274)
(100.605 -0.246043 0.709121)
(99.9939 0.0155517 0.0084692)
(99.9729 0.0314513 0.0174427)
(99.9336 0.0483146 0.0277626)
(99.8748 0.0664365 0.0404171)
(99.7941 0.0852561 0.0564638)
(99.6878 0.102738 0.0771571)
(99.5529 0.114235 0.103873)
(99.3887 0.111037 0.138181)
(99.2009 0.0785968 0.181541)
(99.0077 -0.00379006 0.234752)
(98.8489 -0.153128 0.297304)
(98.7911 -0.362237 0.366809)
(98.8771 -0.581811 0.438326)
(99.0837 -0.740182 0.504474)
(99.3408 -0.816935 0.55877)
(99.5857 -0.843175 0.599962)
(99.7953 -0.840492 0.629953)
(99.968 -0.821904 0.651766)
(100.106 -0.796497 0.667927)
(100.215 -0.769856 0.680142)
(100.297 -0.74557 0.689602)
(100.358 -0.726148 0.697729)
(100.404 -0.711867 0.705163)
(100.437 -0.702173 0.711829)
(100.461 -0.695245 0.717748)
(100.48 -0.690092 0.723126)
(100.494 -0.686754 0.728064)
(100.505 -0.685197 0.732624)
(100.513 -0.685022 0.736825)
(100.519 -0.685809 0.740609)
(100.524 -0.687236 0.743896)
(100.529 -0.689044 0.746624)
(100.532 -0.690979 0.748791)
(100.536 -0.692894 0.750367)
(100.54 -0.694723 0.751297)
(100.544 -0.696462 0.751519)
(100.55 -0.698189 0.750966)
(100.557 -0.699962 0.749616)
(100.566 -0.701857 0.747433)
(100.581 -0.703933 0.744464)
(99.9943 0.0254828 0.0080227)
(99.9742 0.0517736 0.016508)
(99.9365 0.0802262 0.0263307)
(99.8789 0.111736 0.0384631)
(99.7978 0.146097 0.0540049)
(99.6868 0.181086 0.0743315)
(99.5384 0.210572 0.101123)
(99.3451 0.221141 0.136383)
(99.1038 0.186457 0.182278)
(98.8312 0.0585156 0.240677)
(98.5857 -0.27009 0.312206)
(98.4755 -0.724464 0.393613)
(98.5951 -1.13481 0.476735)
(98.8936 -1.36915 0.552653)
(99.2313 -1.46261 0.611935)
(99.525 -1.48745 0.654121)
(99.7627 -1.46831 0.683354)
(99.9496 -1.42762 0.70424)
(100.093 -1.37994 0.719886)
(100.202 -1.33189 0.731892)
(100.282 -1.28944 0.741028)
(100.339 -1.25333 0.749334)
(100.381 -1.23256 0.757331)
(100.413 -1.22452 0.764494)
(100.438 -1.22146 0.770529)
(100.456 -1.22006 0.775535)
(100.469 -1.22009 0.77972)
(100.478 -1.22147 0.783247)
(100.483 -1.22382 0.786225)
(100.485 -1.22674 0.788733)
(100.486 -1.2299 0.790811)
(100.486 -1.23311 0.79249)
(100.485 -1.23613 0.793784)
(100.483 -1.23882 0.794677)
(100.482 -1.24111 0.795116)
(100.481 -1.24306 0.795006)
(100.482 -1.2448 0.794216)
(100.484 -1.2465 0.792603)
(100.488 -1.24828 0.790076)
(100.498 -1.24988 0.786789)
(99.9949 0.034606 0.00733261)
(99.9768 0.0707034 0.0150848)
(99.9425 0.110703 0.0240962)
(99.8889 0.156689 0.0353197)
(99.8106 0.209901 0.0498678)
(99.6984 0.26989 0.0691927)
(99.5378 0.332541 0.0952315)
(99.3082 0.385483 0.130484)
(98.9807 0.399314 0.178073)
(98.4912 0.201779 0.241681)
(98.2326 0.019261 0.273783)
(97.8881 -0.64131 0.348255)
(97.9512 -1.44119 0.429252)
(98.4226 -1.96116 0.506369)
(98.9147 -2.11471 0.565846)
(99.3023 -2.14665 0.604643)
(99.6138 -2.10727 0.62905)
(99.8488 -2.03267 0.64584)
(100.023 -1.95126 0.659133)
(100.154 -1.87703 0.670692)
(100.317 -1.90237 0.803435)
(100.36 -1.83133 0.814221)
(100.377 -1.78301 0.821818)
(100.388 -1.75638 0.827343)
(100.399 -1.74153 0.831848)
(100.403 -1.73473 0.835631)
(100.399 -1.73417 0.838761)
(100.389 -1.73792 0.841344)
(100.373 -1.7443 0.843496)
(100.353 -1.75215 0.845297)
(100.33 -1.76061 0.846788)
(100.304 -1.76905 0.847976)
(100.278 -1.77695 0.848837)
(100.25 -1.78396 0.849301)
(100.223 -1.78987 0.849254)
(100.197 -1.7947 0.848524)
(100.172 -1.79862 0.846869)
(100.149 -1.80201 0.84399)
(100.13 -1.8052 0.839578)
(100.112 -1.80768 0.833458)
(99.9959 0.0421948 0.00640137)
(99.9812 0.0867136 0.0131548)
(99.953 0.137253 0.0210116)
(99.9079 0.19761 0.03084)
(99.8396 0.271582 0.043669)
(99.7367 0.362865 0.0608716)
(99.5799 0.474231 0.0843578)
(99.3366 0.604319 0.116692)
(98.9023 0.739714 0.161204)
(98.5591 0.743081 0.186281)
(97.7521 0.353673 0.249353)
(96.9494 -0.706403 0.331373)
(97.0336 -2.34663 0.429922)
(98.1363 -2.9624 0.522104)
(98.8456 -3.00278 0.582186)
(99.3137 -2.96456 0.606938)
(99.6755 -2.8449 0.616851)
(99.9166 -2.70709 0.625731)
(100.078 -2.58097 0.637946)
(100.187 -2.47818 0.653151)
(100.263 -2.4148 0.668599)
(100.189 -2.54477 0.813049)
(100.069 -2.52741 0.817162)
(99.9523 -2.49938 0.813485)
(99.844 -2.47053 0.806478)
(99.7365 -2.44866 0.79779)
(99.6284 -2.4342 0.78807)
(99.5211 -2.42531 0.777895)
(99.4159 -2.42047 0.767774)
(99.3132 -2.41857 0.758064)
(99.2137 -2.41865 0.748972)
(99.1182 -2.41979 0.740577)
(99.0275 -2.4212 0.732843)
(98.9422 -2.42221 0.725644)
(98.8628 -2.42233 0.718764)
(98.7895 -2.42134 0.711892)
(98.7225 -2.41931 0.704575)
(98.6624 -2.41681 0.696226)
(98.6104 -2.41512 0.686139)
(98.5629 -2.41682 0.673766)
(99.9974 0.0473576 0.00527125)
(99.9877 0.0978279 0.0107949)
(99.9687 0.15636 0.0171671)
(99.9376 0.228558 0.0250884)
(99.8891 0.321231 0.0353686)
(99.8127 0.443602 0.0490674)
(99.6893 0.609135 0.0676272)
(99.4824 0.837819 0.0929434)
(99.0681 1.16056 0.127319)
(98.6597 1.32119 0.147472)
(97.7071 1.46192 0.174359)
(95.6014 0.695994 0.227235)
(94.3822 -3.43159 0.332714)
(98.1589 -4.73124 0.454802)
(98.6759 -3.98075 0.526986)
(99.2717 -3.90556 0.49813)
(99.6606 -3.66151 0.469676)
(99.8174 -3.40047 0.466617)
(99.8564 -3.17778 0.477833)
(99.8285 -2.97827 0.491009)
(98.6739 -2.78989 0.445736)
(95.1013 -2.56482 0.37791)
(95.1847 -2.63394 0.375541)
(95.2758 -2.66986 0.369906)
(95.3476 -2.69208 0.363957)
(95.4057 -2.71141 0.358506)
(95.4586 -2.72919 0.353489)
(95.5101 -2.74476 0.348682)
(95.5612 -2.75793 0.343861)
(95.6121 -2.76881 0.338825)
(95.6629 -2.77742 0.333432)
(95.7137 -2.78372 0.327629)
(95.7644 -2.78755 0.321364)
(95.8147 -2.78878 0.314629)
(95.8644 -2.78728 0.307409)
(95.9134 -2.78307 0.299601)
(95.9613 -2.77635 0.290926)
(96.008 -2.76773 0.280831)
(96.0533 -2.75848 0.268339)
(96.1067 -2.75133 0.251785)
(99.9992 0.049307 0.00394442)
(99.9957 0.102149 0.00807167)
(99.9886 0.164358 0.0127171)
(99.9767 0.242778 0.0183299)
(99.9572 0.346345 0.0253731)
(99.9256 0.488479 0.0343729)
(99.8734 0.690911 0.0459201)
(99.786 0.991716 0.0604517)
(99.6149 1.46338 0.0776793)
(99.3475 1.86143 0.0874284)
(98.6291 2.79445 0.0962307)
(95.4922 5.78752 0.114154)
(77.2013 -4.34083 0.241593)
(54.2302 -3.54779 0.739928)
(77.4509 -5.1238 -0.506569)
(81.0324 -4.37714 -0.594906)
(82.8716 -3.83278 -0.543234)
(83.9917 -3.36421 -0.457564)
(85.0386 -3.04198 -0.393425)
(92.6078 -3.68665 -0.451343)
(96.4081 -3.41487 -0.671946)
(96.5464 -3.2994 -0.658889)
(96.6959 -3.21887 -0.638546)
(96.8204 -3.16214 -0.616836)
(96.9288 -3.11971 -0.596019)
(97.0308 -3.08656 -0.577029)
(97.1294 -3.05968 -0.560484)
(97.2247 -3.03698 -0.546704)
(97.3164 -3.01693 -0.535681)
(97.4042 -2.99842 -0.527169)
(97.4876 -2.98065 -0.520785)
(97.5657 -2.96307 -0.516071)
(97.6378 -2.94526 -0.512602)
(97.7034 -2.92697 -0.51002)
(97.7622 -2.90804 -0.508121)
(97.8144 -2.88837 -0.506973)
(97.8605 -2.86781 -0.506944)
(97.9017 -2.84585 -0.508794)
(97.9497 -2.82087 -0.513458)
(100.001 0.0473132 0.00271475)
(100.004 0.0982128 0.00532108)
(100.01 0.158623 0.00810505)
(100.02 0.235445 0.0112256)
(100.033 0.337785 0.0147298)
(100.054 0.479104 0.0185285)
(100.088 0.68052 0.0222162)
(100.149 0.977304 0.0246605)
(100.292 1.43084 0.0230709)
(100.341 1.83835 0.0207152)
(100.616 2.81716 0.00809541)
(102.439 5.33191 -0.0319722)
(111.067 3.94846 -0.0897321)
(109.044 -6.65696 -0.300409)
(102.771 -6.79523 -0.361607)
(101.135 -4.97052 -0.412252)
(100.701 -3.96488 -0.453562)
(100.538 -3.40951 -0.483851)
(100.457 -3.08215 -0.503669)
(100.388 -2.88905 -0.516354)
(100.279 -2.71111 -0.584571)
(100.296 -2.32266 -0.754859)
(100.276 -2.22538 -0.753151)
(100.26 -2.17363 -0.74633)
(100.246 -2.14934 -0.738967)
(100.234 -2.13822 -0.732388)
(100.223 -2.13438 -0.726774)
(100.216 -2.13518 -0.72229)
(100.21 -2.13863 -0.719061)
(100.206 -2.14308 -0.717063)
(100.204 -2.14732 -0.716158)
(100.203 -2.15057 -0.716156)
(100.202 -2.15231 -0.716843)
(100.202 -2.15229 -0.718008)
(100.202 -2.15039 -0.71954)
(100.202 -2.14661 -0.721426)
(100.202 -2.14095 -0.723825)
(100.203 -2.13327 -0.727059)
(100.206 -2.12308 -0.731543)
(100.215 -2.10919 -0.737306)
(100.003 0.04137 0.00137385)
(100.012 0.0860822 0.00262609)
(100.031 0.139095 0.00370101)
(100.06 0.206376 0.00448032)
(100.103 0.295387 0.004661)
(100.169 0.416134 0.0036371)
(100.271 0.58256 0.000255327)
(100.434 0.813734 -0.00760465)
(100.747 1.13342 -0.0239152)
(100.971 1.36965 -0.0351394)
(101.817 1.81848 -0.0740207)
(103.423 1.71233 -0.147674)
(105.19 -0.287084 -0.257173)
(104.727 -2.84938 -0.376893)
(102.947 -3.5697 -0.46827)
(101.742 -3.33917 -0.531499)
(101.127 -2.97872 -0.572067)
(100.804 -2.6764 -0.596006)
(100.62 -2.45079 -0.610053)
(100.498 -2.28431 -0.6185)
(100.411 -2.15104 -0.622996)
(100.315 -1.85633 -0.768525)
(100.282 -1.82782 -0.765992)
(100.258 -1.81065 -0.762156)
(100.241 -1.80179 -0.758152)
(100.228 -1.79686 -0.754364)
(100.218 -1.79346 -0.75094)
(100.21 -1.79062 -0.747997)
(100.203 -1.78767 -0.74559)
(100.198 -1.78407 -0.743691)
(100.195 -1.77939 -0.742217)
(100.193 -1.77348 -0.741063)
(100.191 -1.76627 -0.740129)
(100.191 -1.75781 -0.739322)
(100.192 -1.74817 -0.738641)
(100.193 -1.73743 -0.738162)
(100.196 -1.72565 -0.738083)
(100.201 -1.71279 -0.738719)
(100.208 -1.69893 -0.740486)
(100.225 -1.68476 -0.743833)
(100.004 0.0320862 0.000290316)
(100.019 0.0667345 0.000373666)
(100.047 0.107689 -3.6691e-06)
(100.091 0.159299 -0.0011674)
(100.157 0.226468 -0.00368681)
(100.254 0.314972 -0.00850314)
(100.396 0.430927 -0.0171561)
(100.61 0.578583 -0.0321523)
(100.937 0.75387 -0.057533)
(101.414 0.835187 -0.0988659)
(102.042 0.73733 -0.161825)
(102.706 0.215762 -0.250789)
(103.055 -0.752 -0.358433)
(102.807 -1.56602 -0.472432)
(102.174 -1.86228 -0.567828)
(101.559 -1.85897 -0.634958)
(101.129 -1.76711 -0.677057)
(100.853 -1.65854 -0.701919)
(100.671 -1.5569 -0.716387)
(100.545 -1.46837 -0.724474)
(100.458 -1.39345 -0.72835)
(100.401 -1.32921 -0.72922)
(100.36 -1.2802 -0.729742)
(100.329 -1.24238 -0.73044)
(100.305 -1.21415 -0.731164)
(100.286 -1.19363 -0.731973)
(100.27 -1.17874 -0.733009)
(100.256 -1.16783 -0.734294)
(100.244 -1.15966 -0.735743)
(100.233 -1.15324 -0.737226)
(100.225 -1.14778 -0.738614)
(100.218 -1.1427 -0.739804)
(100.212 -1.13759 -0.740731)
(100.208 -1.13219 -0.74137)
(100.206 -1.1263 -0.741784)
(100.205 -1.11985 -0.742102)
(100.206 -1.11276 -0.742538)
(100.21 -1.10503 -0.743382)
(100.215 -1.09677 -0.744983)
(100.225 -1.08845 -0.747632)
(100.005 0.020224 -0.000516972)
(100.023 0.0420102 -0.00128737)
(100.058 0.0677717 -0.00269943)
(100.112 0.0999063 -0.00521866)
(100.192 0.141043 -0.00960851)
(100.305 0.193695 -0.0169209)
(100.464 0.259264 -0.0287791)
(100.686 0.335287 -0.0475178)
(100.988 0.408857 -0.0763125)
(101.379 0.441458 -0.118985)
(101.832 0.37768 -0.179204)
(102.251 0.144252 -0.25852)
(102.467 -0.268766 -0.351696)
(102.352 -0.686956 -0.446596)
(101.97 -0.919489 -0.529512)
(101.525 -0.971114 -0.591541)
(101.161 -0.937736 -0.633107)
(100.901 -0.881127 -0.659401)
(100.716 -0.823919 -0.675746)
(100.581 -0.772661 -0.685729)
(100.482 -0.730178 -0.691582)
(100.41 -0.699511 -0.694914)
(100.357 -0.679853 -0.697336)
(100.317 -0.668319 -0.699413)
(100.287 -0.662769 -0.701242)
(100.263 -0.661501 -0.702913)
(100.245 -0.662909 -0.70451)
(100.23 -0.665707 -0.706024)
(100.217 -0.669029 -0.707373)
(100.207 -0.672299 -0.708447)
(100.199 -0.675109 -0.70915)
(100.192 -0.67721 -0.709416)
(100.187 -0.678459 -0.709221)
(100.184 -0.678816 -0.708589)
(100.182 -0.678241 -0.707656)
(100.182 -0.676804 -0.706543)
(100.184 -0.67457 -0.705458)
(100.188 -0.671632 -0.704703)
(100.195 -0.668126 -0.704673)
(100.211 -0.664253 -0.705885)
(100.006 0.00689774 -0.000974338)
(100.025 0.0143431 -0.00216667)
(100.063 0.0230998 -0.00415838)
(100.122 0.0339438 -0.00732266)
(100.207 0.0476995 -0.0126956)
(100.327 0.0650415 -0.0212117)
(100.492 0.0859707 -0.0345017)
(100.712 0.109024 -0.0547374)
(100.995 0.129022 -0.0847958)
(101.335 0.133754 -0.127298)
(101.697 0.103716 -0.184477)
(102.009 0.0190141 -0.256323)
(102.168 -0.116695 -0.338465)
(102.101 -0.256776 -0.421784)
(101.834 -0.34428 -0.495846)
(101.484 -0.37026 -0.553915)
(101.163 -0.36315 -0.5947)
(100.914 -0.346767 -0.62141)
(100.73 -0.330011 -0.638506)
(100.593 -0.315073 -0.649352)
(100.49 -0.302748 -0.65623)
(100.415 -0.293468 -0.660709)
(100.36 -0.286427 -0.663997)
(100.319 -0.280707 -0.666781)
(100.289 -0.275704 -0.669515)
(100.265 -0.271083 -0.672266)
(100.247 -0.266601 -0.67499)
(100.231 -0.262108 -0.677613)
(100.218 -0.257556 -0.680022)
(100.207 -0.252952 -0.682093)
(100.197 -0.248313 -0.683711)
(100.189 -0.243662 -0.684796)
(100.183 -0.239026 -0.68531)
(100.178 -0.234429 -0.685231)
(100.175 -0.229861 -0.684896)
(100.174 -0.225364 -0.6843)
(100.175 -0.220975 -0.683614)
(100.178 -0.216749 -0.683146)
(100.185 -0.212852 -0.683285)
(100.195 -0.209859 -0.684531)
(99.9942 0.00509211 0.0134471)
(99.9745 0.0102521 0.0277897)
(99.9379 0.0156741 0.0443479)
(99.8836 0.0214116 0.064644)
(99.8102 0.0272257 0.0903195)
(99.7157 0.0323921 0.123308)
(99.5993 0.0353539 0.165668)
(99.4633 0.0333125 0.219661)
(99.3159 0.0218224 0.287288)
(99.1752 -0.00506881 0.369387)
(99.0713 -0.0528291 0.464861)
(99.0414 -0.118952 0.569494)
(99.1087 -0.186002 0.67554)
(99.2639 -0.235729 0.774209)
(99.4662 -0.259221 0.857752)
(99.6709 -0.265774 0.923698)
(99.8538 -0.263256 0.973356)
(100.008 -0.25573 1.00995)
(100.134 -0.245883 1.03675)
(100.232 -0.236033 1.05655)
(100.308 -0.227265 1.07144)
(100.364 -0.219805 1.08339)
(100.405 -0.213818 1.09407)
(100.434 -0.2098 1.10433)
(100.456 -0.207663 1.11434)
(100.472 -0.206931 1.124)
(100.485 -0.207213 1.13314)
(100.496 -0.208204 1.14169)
(100.504 -0.209598 1.14959)
(100.512 -0.211129 1.15675)
(100.52 -0.212601 1.16302)
(100.527 -0.213904 1.16829)
(100.534 -0.21497 1.17254)
(100.541 -0.215779 1.17571)
(100.548 -0.216341 1.17774)
(100.555 -0.216719 1.17857)
(100.563 -0.216991 1.17817)
(100.572 -0.217241 1.17649)
(100.582 -0.217589 1.17341)
(100.598 -0.218245 1.16869)
(99.9945 0.0151245 0.0131208)
(99.9751 0.0305576 0.0271025)
(99.939 0.0469515 0.0433064)
(99.885 0.0645946 0.0632631)
(99.8107 0.0829769 0.0886722)
(99.7129 0.100216 0.121613)
(99.5887 0.111983 0.164469)
(99.4375 0.110043 0.219964)
(99.2644 0.0805829 0.290766)