/*--------------------------------*- C++ -*----------------------------------*\
| =========                 |                                                 |
| \\      /  F ield         | OpenFOAM: The Open Source CFD Toolbox           |
|  \\    /   O peration     | Version:  2306                                  |
|   \\  /    A nd           | Website:  www.openfoam.com                      |
|    \\/     M anipulation  |                                                 |
\*---------------------------------------------------------------------------*/
FoamFile
{
    version     2.0;
    format      ascii;
    arch        "LSB;label=32;scalar=64";
    class       volVectorField;
    location    "0.15";
    object      Force;
}
// * * * * * * * * * * * * * * * * * * * * * * * * * * * * * * * * * * * * * //

dimensions      [1 1 -2 0 0 0 0];

internalField   uniform (0 0 0);

boundaryField
{
    walls
    {
        type            calculated;
        value           uniform (0 0 0);
    }
    inlet
    {
        type            calculated;
        value           uniform (0 0 0);
    }
    outlet
    {
        type            calculated;
        value           uniform (0 0 0);
    }
    NASA
    {
        type            calculated;
        value           nonuniform List<vector> 
14179
(
(-0.0144951 -0.133301 8.7939e-06)
(-0.0129609 -0.107138 6.36281e-06)
(-0.0668972 -0.540819 0.000881376)
(-0.100587 -0.808222 0.00328845)
(-0.0660283 -0.534381 0.00045248)
(-0.109576 -0.880311 0.00363762)
(0.215743 0.936369 -0.000350057)
(0.0909403 0.456523 -6.79642e-05)
(0.673832 3.30301 0.00374687)
(0.0973552 0.488775 -7.37907e-05)
(-0.000458675 -0.0072741 3.75199e-06)
(-0.0178656 -0.146054 0.0005915)
(0.130811 0.652839 -0.00244969)
(-0.0355709 -0.322997 0.00142528)
(0.0620081 0.309171 -0.00112839)
(1.37754 0.92925 0.00282993)
(1.39227 0.922769 -0.000436865)
(0.0222849 0.12498 -5.75274e-05)
(0.169165 1.0039 -0.000148372)
(1.25889 0.834226 -0.00345941)
(-0.0170317 -0.23831 -4.34883e-06)
(-0.0212481 -0.197561 -0.000113033)
(-0.0194888 -0.270564 -0.000222475)
(-0.00866281 -0.0630902 3.84644e-06)
(-0.0131446 -0.10871 2.46842e-05)
(-0.00936299 -0.0681915 2.05972e-05)
(-0.0128832 -0.10598 0.000437719)
(-0.015145 -0.108406 0.000462577)
(-0.0132264 -0.120645 0.000498141)
(-0.0154633 -0.211833 0.0038967)
(0.0468082 0.204416 5.72139e-06)
(0.0526395 0.248211 -3.95135e-06)
(0.0566036 0.266895 -9.68504e-05)
(0.0461852 0.201173 -2.34761e-05)
(0.068566 0.251557 -5.54301e-06)
(0.0677124 0.248247 -1.67749e-05)
(0.0344314 0.124934 -1.7999e-06)
(0.0365558 0.132551 -3.38952e-06)
(-0.0022771 -0.0107912 0.000159358)
(-0.0128023 -0.0622676 0.000722892)
(0.170706 0.623079 -0.00187835)
(0.0998933 0.359958 -0.000684898)
(0.0962432 0.482893 -8.51507e-05)
(-0.00598434 -0.0420678 4.019e-06)
(-0.00544655 -0.0382832 3.94322e-07)
(0.155086 0.778655 -0.000134743)
(-0.00987134 -0.068243 0.000322954)
(0.097158 0.484716 -0.00115024)
(0.090344 0.451151 -0.00119888)
(0.10758 0.43955 -0.000378164)
(0.0843871 0.313705 -2.40724e-05)
(0.0840241 0.312359 -6.22466e-05)
(-0.0598251 1.45959 -0.000186284)
(1.38755 0.922561 -0.000766817)
(-0.0507268 1.24642 7.06033e-05)
(-0.00245638 1.19427 -0.000141705)
(0.0767741 1.16161 1.99083e-05)
(0.0720916 1.0898 -0.000240673)
(-0.00232254 1.05971 -2.22145e-05)
(0.101584 0.399278 -3.77158e-05)
(0.168836 1.00088 -0.000212761)
(0.00706554 0.0256408 1.30742e-05)
(-0.0226958 0.565694 -0.00140185)
(0.909596 0.620621 0.0748846)
(-0.000663913 0.531545 -0.00160899)
(0.0268696 0.406943 -0.00111999)
(0.127138 0.743506 0.00599277)
(-0.0146132 -0.146211 1.18241e-05)
(-0.0144382 -0.132861 1.70035e-05)
(-0.0989188 -0.794936 0.00322956)
(-0.0114363 -0.0906936 6.1336e-06)
(-0.0129395 -0.106969 1.34669e-05)
(1.30754 0.865455 -0.00423137)
(1.2587 0.833385 -0.00386236)
(0.346897 2.05511 -0.00914097)
(0.261625 1.54431 -0.00629333)
(-0.111139 -0.893992 0.00222088)
(-0.0569456 -0.354074 0.00150039)
(-0.0561003 -0.351123 0.00152061)
(-0.0432991 -0.253746 0.00109833)
(0.157454 0.678636 -0.00292017)
(0.177178 0.765471 -0.00322106)
(0.762525 1.30921 -5.4322e-05)
(0.763012 1.30808 -0.000326806)
(0.0897976 0.450663 -7.43586e-05)
(0.0828582 0.398082 -4.61539e-05)
(-0.000303754 -0.00336271 -6.1727e-07)
(0.00142124 0.00713937 -2.79531e-07)
(0.00145397 0.00732575 -2.27528e-06)
(-0.000293959 -0.00329467 3.42885e-07)
(0.0973525 0.488739 -6.57567e-05)
(0.0931866 0.48066 -5.81965e-05)
(-0.0200844 -0.16396 0.000708565)
(-0.0135604 -0.09709 0.000439613)
(-0.0204426 -0.145818 0.000628135)
(-0.0123961 -0.0854014 0.000410791)
(-0.0182362 -0.124941 0.000494664)
(0.0856244 0.426934 -0.00182366)
(-0.0200377 -0.18207 0.00076992)
(-0.0246499 -0.338006 0.00159688)
(-0.0207864 -0.291409 0.000638865)
(0.0803184 0.400851 -0.00168361)
(1.37465 0.923224 -0.0026725)
(0.100095 0.590051 -9.41809e-05)
(0.107419 0.600825 -4.59299e-05)
(0.107377 0.600265 -8.99519e-05)
(0.177211 1.23348 -0.000174493)
(0.110396 0.654759 -0.000102111)
(0.16755 0.993873 -0.000153207)
(0.0211116 0.0199406 2.04132e-05)
(0.332173 -0.122409 0.00333199)
(0.348742 -0.138265 0.00164128)
(0.00961377 0.00920228 -2.46232e-05)
(-0.00724838 -0.0309572 0.000198963)
(0.0205587 0.0757091 -0.000264979)
(0.00143055 0.00463263 4.80939e-05)
(0.0205262 0.0824982 -0.00019052)
(-0.00993283 -0.0442589 0.000202722)
(-0.0023305 -0.012679 0.000132608)
(0.00367794 0.0152107 -1.14716e-05)
(-0.0183223 -0.0885192 0.000374078)
(-0.000971644 0.729128 -0.00283129)
(0.0407036 0.606663 -0.00244011)
(-0.00143089 0.977832 -0.00386254)
(0.031695 0.478715 -0.00223801)
(-0.0344512 0.864089 -0.00354928)
(1.08783 0.731585 -0.00332292)
(-0.0466945 1.15865 -0.00453761)
(0.109417 0.647039 -0.00363618)
(0.156641 0.613085 -0.0027903)
(0.117642 0.459818 -0.00185927)
(0.108628 0.396168 -0.00158193)
(0.153745 0.561431 -0.00224467)
(0.0633768 0.228533 -0.000910543)
(0.0864115 0.312134 -0.00131883)
(-0.0131695 -0.14838 3.60182e-06)
(-0.0169174 -0.236386 2.42435e-05)
(-0.010493 -0.0808231 5.7505e-06)
(-0.00851315 -0.0620049 6.97652e-06)
(0.000560925 0.00155768 0.527314)
(-0.0129375 -0.101671 0.000426205)
(0.000531871 0.00148828 0.501427)
(-0.0143909 -0.10952 0.000469159)
(0.000842143 0.00183354 0.570695)
(-0.0129439 -0.129044 0.000597975)
(0.0010872 0.00227556 0.571945)
(-0.0120473 -0.138531 0.00142412)
(0.0524326 0.247221 -4.25409e-05)
(0.0391104 0.177874 -1.3289e-05)
(0.039424 0.179323 -3.15666e-05)
(0.0464045 0.202098 -2.63131e-05)
(0.0456662 0.201136 -1.54801e-05)
(0.0459011 0.202189 -3.26772e-05)
(0.0677901 0.248567 -1.18703e-05)
(0.0239816 0.119271 -1.95285e-05)
(0.0214336 0.108739 -1.78452e-05)
(0.0350235 0.127012 -3.56327e-07)
(0.029913 0.105251 -2.24449e-06)
(-0.00661201 -0.0302109 0.000275633)
(-0.00553138 -0.0263087 0.000295887)
(0.000421156 0.00121465 0.318719)
(0.000420963 0.0011692 0.311849)
(0.000410521 0.00114424 0.30758)
(0.000318876 0.00115147 0.354049)
(0.0944355 0.321628 -0.000359265)
(0.161053 0.562853 0.00262784)
(-1.18131e-05 0.00118916 0.334525)
(0.000338629 0.000601743 0.30413)
(0.000121053 0.000409525 0.107073)
(0.0825005 0.289458 -0.000532035)
(0.285038 0.662191 -1.23454e-05)
(0.167496 0.590514 4.87437e-05)
(0.165808 0.584608 -5.40709e-05)
(0.0781723 0.365114 -3.39071e-05)
(0.0788801 0.368464 -5.96661e-05)
(0.129376 0.618029 -6.19795e-05)
(0.0768503 0.342242 -5.48519e-05)
(0.080472 0.365273 -3.07346e-05)
(0.0818359 0.371405 -6.09591e-05)
(0.0761379 0.339168 -2.2893e-05)
(-0.00477789 -0.0336149 2.96427e-06)
(-0.0059109 -0.0415557 3.55743e-06)
(0.14849 0.786641 -6.94545e-05)
(0.260619 0.449366 0.00993244)
(0.00105348 0.00426446 0.853359)
(0.000344598 0.00221084 0.408086)
(0.0472564 0.137377 -0.000191664)
(-0.0118411 -0.0737835 0.000395883)
(-0.0118289 -0.0745959 0.000541493)
(0.000969365 0.00254101 0.670078)
(0.000339761 0.000651977 0.308746)
(0.0962097 0.493444 -0.000188962)
(0.000531646 0.000684873 0.372198)
(0.139926 0.73491 0.00354103)
(0.000558205 0.00142478 0.344481)
(0.000410027 0.00121057 0.325655)
(-0.00031236 0.000941639 0.348227)
(6.91699e-05 0.00053285 0.112022)
(0.0805758 0.384642 -0.00106035)
(0.103256 0.479378 -0.000256344)
(0.000461115 0.000458206 0.204884)
(9.62511e-05 0.000622517 0.107381)
(0.169936 0.713752 0.000111697)
(0.0844082 0.313781 -3.57486e-05)
(0.0803865 0.307725 -2.95643e-05)
(0.0958385 0.3907 -5.34993e-05)
(0.067274 0.270962 -1.56998e-05)
(-0.840364 2.68656 -0.020617)
(-0.0531307 1.3012 -6.60088e-05)
(-0.173626 1.62275 0.000702237)
(0.0753992 1.13879 -0.000130718)
(0.0558778 1.19553 -7.62758e-05)
(-0.00230408 1.08195 -5.83688e-05)
(0.0299462 1.13164 -5.68804e-05)
(0.118708 1.30332 -0.000116798)
(0.153473 1.98207 -0.000123948)
(0.15107 1.95066 -0.000170919)
(0.119278 1.30994 -0.000104353)
(0.130625 1.33468 -0.000145286)
(0.128341 1.19442 -3.27976e-05)
(0.130817 1.21773 -0.000165511)
(0.129404 1.32176 -3.82502e-05)
(0.0684259 0.283581 -3.44282e-05)
(0.0637077 0.252825 -2.9845e-05)
(0.10242 0.40248 -3.97402e-05)
(0.111425 0.754665 -0.000138121)
(0.118557 0.746628 -0.000114418)
(-0.000322108 0.00123745 0.559522)
(0.000932102 0.00366672 0.881872)
(0.000778762 0.00220078 0.000134792)
(0.00040618 0.00383254 0.73002)
(0.00165393 0.00546094 0.000122094)
(0.000504879 0.0104808 0.272841)
(-0.0600512 0.576801 -0.00197585)
(0.0074504 -0.000481555 1.7381)
(0.000378443 0.000957206 0.301723)
(0.0141373 0.514309 -0.0016181)
(0.000761764 0.000434439 0.243142)
(0.0231133 0.482586 -0.0013971)
(0.0609576 0.52389 -0.00161827)
(0.0607154 0.514353 -0.00157028)
(0.000379781 0.000775425 0.242367)
(0.000409206 0.000848806 0.266595)
(0.0571407 0.526566 -0.00151745)
(0.0519292 0.523203 -0.00121808)
(0.0469897 0.513507 0.000109235)
(2.13565e-05 -0.000193795 0.221579)
(-0.0189917 -0.10418 0.00133606)
(0.000206132 0.00146311 0.497348)
(0.0914997 0.508465 -0.00116913)
(0.000412452 0.00117531 0.317)
(0.000415158 0.00118138 0.318424)
(0.484277 -0.192978 -0.00374319)
(0.228093 0.215627 0.00186135)
(0.000186743 0.000223653 0.0799771)
(-0.0528461 -0.519302 0.00145793)
(-0.0694174 -0.560489 0.00158379)
(-0.0566908 -0.556282 0.00196255)
(-0.0698731 -0.564103 0.00162683)
(-0.0769012 -0.619856 0.0022002)
(-0.0589132 -0.577579 0.00224612)
(-0.0829105 -0.667507 0.00261126)
(0.179942 0.778235 -0.00327698)
(0.44949 2.19966 -0.00904422)
(0.183342 0.793352 -0.00332965)
(0.429069 2.09916 -0.00865866)
(-0.0661845 -0.535495 0.00050976)
(-0.0425997 -0.265438 0.00110342)
(-0.104897 -0.842544 0.00344215)
(-0.0483801 -0.301006 0.00125566)
(1.39055 0.921689 -0.00101962)
(1.39251 0.922922 -0.000480697)
(0.230612 1.00096 -0.000464699)
(0.646684 3.17281 -0.00271564)
(0.613095 3.00738 -0.00153833)
(0.230374 0.999735 -0.000850139)
(0.430878 2.55445 -0.00140253)
(0.497994 2.95235 -0.00256825)
(-0.00105013 -0.00980397 9.98536e-06)
(-0.000549929 -0.00733297 4.63505e-06)
(0.0221134 0.125086 -0.000110443)
(0.0225936 0.127304 -7.20841e-05)
(0.0467151 0.202425 -0.000718814)
(0.0341216 0.154704 -0.000546482)
(0.0568169 0.247013 -0.000918397)
(0.025923 0.116595 -0.000378757)
(-0.108754 -0.874302 0.00361007)
(-0.0693656 -0.50355 0.00208736)
(0.0149229 0.0693589 -0.000163066)
(-0.0121265 -0.0668954 0.000336521)
(0.0641437 0.233789 -0.00100188)
(0.0721283 0.262857 -0.00110317)
(0.0348832 0.125675 -0.000540589)
(0.0403304 0.145293 -0.000610416)
(0.281823 1.27457 -0.000497012)
(0.178059 0.772214 -0.000166886)
(0.316229 1.49466 -0.000626174)
(0.141462 0.70967 -0.000178557)
(-0.0188216 -0.158426 0.000194572)
(-0.0429865 -0.318668 0.000383434)
(-0.0069876 -0.0510644 -6.44631e-06)
(0.000409576 -0.00260772 1.41086e-06)
(-0.018493 -0.126769 5.55565e-05)
(-0.0245474 -0.171706 0.000111041)
(0.0966207 0.395082 9.18913e-05)
(0.083696 0.311179 -0.000140678)
(0.0838906 0.311873 -8.5464e-05)
(0.108005 0.443141 -0.000784939)
(0.164777 0.723825 -0.000303591)
(0.141331 0.651349 -0.000161066)
(0.172089 0.756559 -0.000336263)
(0.180928 0.84378 -0.000184045)
(-0.00270874 1.294 -0.000176724)
(0.0677136 1.02061 -0.00045149)
(-0.00321337 1.49033 -0.000575232)
(0.0728893 1.10153 -0.000314739)
(-0.0631085 1.54049 -0.000229527)
(1.39032 0.92273 -0.000462694)
(-0.0696584 1.70012 -0.000644493)
(0.470558 4.03551 -0.00232155)
(0.0974094 0.382736 -9.63009e-05)
(0.0836314 0.328504 -0.000162546)
(0.0673134 0.246725 -5.34105e-05)
(0.0677293 0.248317 -2.61897e-05)
(0.0565863 0.296629 -0.000172892)
(0.183247 0.904473 -0.00128299)
(0.0215174 0.119816 -8.51287e-05)
(0.0470047 0.252202 -0.000115539)
(0.798572 4.99637 0.00141148)
(0.360377 2.40728 8.31047e-05)
(0.0404558 0.146636 -2.03318e-05)
(0.0372484 0.135066 -5.55646e-06)
(1.24033 0.823826 -0.00238696)
(0.0899394 0.622202 -0.00257995)
(0.249711 0.234175 -0.000944659)
(0.497562 -0.206362 0.000372548)
(0.236506 0.222483 -0.00097776)
(0.519289 -0.215742 0.000122844)
(0.067632 0.247954 -1.58398e-05)
(0.0326501 0.11479 1.47117e-06)
(0.0357348 0.129581 4.43394e-07)
(0.285045 0.66223 -3.51195e-05)
(0.275024 0.807365 -0.000126624)
(0.000863836 0.00283902 0.721317)
(0.000350205 0.00149201 0.359693)
(0.000528655 0.000707746 0.381458)
(-0.190893 1.76893 -0.000250102)
(-0.0561575 1.37205 -8.58828e-05)
(1.38333 0.923108 -0.0014351)
(0.02602 0.024585 2.33504e-05)
(0.348658 -0.1433 0.000132395)
(0.349822 -0.142224 0.000562718)
(0.0269322 0.0254126 1.62004e-05)
(0.000520506 0.00168801 0.538034)
(0.000405761 0.000869542 0.376774)
(0.00037539 0.00097274 0.338574)
(0.000579384 0.00146753 0.361397)
(-0.0898587 -0.722795 0.00290106)
(1.34243 0.888644 -0.00435757)
(1.32728 0.878586 -0.00430431)
(1.30413 0.863213 -0.00422153)
(1.32573 0.87755 -0.00429964)
(0.399477 1.95331 -0.00807773)
(0.176749 0.763818 -0.00322042)
(0.178669 0.7726 -0.0032548)
(0.421424 2.06158 -0.00851372)
(0.270904 1.59935 -0.00655792)
(0.289853 1.71154 -0.00697972)
(-0.0248801 -0.14688 0.000625977)
(-0.0317216 -0.186428 0.000794113)
(-0.0558243 -0.346954 0.00146053)
(-0.0504199 -0.313558 0.00131112)
(-0.0414202 -0.242651 0.00104199)
(-0.0342681 -0.201149 0.000858289)
(0.253725 2.15602 -0.00869952)
(0.240572 2.04344 -0.00833648)
(0.0237636 0.0876258 -0.000318068)
(0.0221392 0.0893336 -0.000355362)
(0.0335387 0.136218 -0.00031294)
(0.0317679 0.117387 -0.0004522)
(0.00105354 0.00336781 5.73063e-05)
(0.0240205 0.10229 -0.000268473)
(0.0332919 0.143427 -0.000470875)
(0.0189771 0.0838594 -0.000203958)
(0.0397078 0.146914 -0.000582243)
(0.0434849 0.177164 -0.000454513)
(0.0340245 0.12578 -0.000489539)
(0.0425968 0.634613 -0.0025396)
(-0.00151038 1.02136 -0.00403433)
(-0.00169016 1.12634 -0.00444702)
(0.0469577 0.699854 -0.00280564)
(-0.0540746 1.34055 -0.00525673)
(1.29408 0.856522 -0.00417878)
(-0.0565545 1.40164 -0.00549981)
(-0.0485311 1.20392 -0.00471857)
(-0.0528701 1.31089 -0.00514065)
(1.29033 0.854033 -0.0041665)
(-0.00174121 1.15493 -0.00455912)
(0.0513078 0.76581 -0.00306252)
(-0.00184171 1.21105 -0.00478303)
(0.048289 0.72018 -0.00285837)
(0.227057 1.3411 -0.00527631)
(0.412261 2.56196 -0.0125734)
(0.238143 1.58486 -0.00648384)
(0.24805 1.46337 -0.00606717)
(0.406113 2.53083 -0.0102743)
(0.37845 2.35754 -0.00978166)
(0.196369 1.30426 -0.00655696)
(-0.0813562 -0.596737 0.00203823)
(-0.101918 -0.819365 0.003456)
(-0.0667849 -0.442977 0.00185352)
(-0.0570915 -0.355458 0.00152665)
(-0.0802449 -0.537545 0.00215787)
(-0.0533588 -0.332996 0.00146207)
(-0.0249952 -0.138887 0.000632739)
(-0.0451377 -0.264939 0.00117151)
(0.00158607 0.00143377 0.000213224)
(-0.0477749 -0.281657 0.0012634)
(0.23208 1.04219 -0.00458533)
(0.180404 0.778979 -0.00325624)
(0.239252 1.12669 -0.00468336)
(0.178575 0.771315 -0.00323299)
(0.226613 1.02109 -0.0042671)
(0.24203 1.13903 -0.00513205)
(0.369132 1.80309 -0.00764587)
(0.105719 0.413136 -0.00168404)
(0.0898849 0.351178 -0.0014635)
(0.0956966 0.348909 -0.00141171)
(0.0758291 0.276351 -0.00115016)
(0.0873455 0.341289 -0.00143584)
(0.0814362 0.318267 -0.00135464)
(0.0556901 0.200753 -0.000809527)
(0.0428726 0.154457 -0.0006429)
(0.11889 0.275461 -0.0010955)
(0.100345 0.232385 -0.000886017)
(-0.0207312 -0.156954 0.000685265)
(-0.0182921 -0.130692 0.000575356)
(0.0811966 0.41473 -0.0020047)
(0.0858605 0.428296 -0.00174271)
(0.123985 0.654152 -0.0033104)
(-0.0192047 -0.189557 0.000733294)
(-0.019835 -0.180631 0.000769807)
(-0.0171194 -0.188106 0.000481581)
(-0.0211196 -0.292395 0.00116087)
(0.0771431 0.368958 -0.00166239)
(0.0817255 0.407727 -0.00164882)
(-0.00493458 -0.0206726 0.000133907)
(0.00494932 0.0188408 3.37829e-05)
(-0.00175237 -0.00749185 9.66876e-05)
(0.0115689 0.0422882 -0.000102542)
(0.0176336 0.644246 -0.00253101)
(-0.00117428 0.843107 -0.00333009)
(0.0267883 0.563587 -0.00229431)
(0.0359996 0.537651 -0.00222894)
(-0.104084 0.990948 -0.00525538)
(-0.0407333 1.01356 -0.00401749)
(1.20457 0.804265 -0.000818517)
(-0.449123 1.46234 -0.00527522)
(-0.0445768 1.10705 -0.00435197)
(-0.139085 1.29632 -0.00499464)
(-0.01217 -0.0635167 0.000321664)
(-0.00910496 -0.0467659 0.00024746)
(-0.0108921 -0.0557078 0.000289216)
(-0.0103754 -0.0543466 0.000280364)
(-0.024945 -0.136811 0.000493493)
(0.000835831 0.00178811 0.383946)
(0.0583799 0.392419 -0.00161663)
(0.0918021 0.635237 -0.00272143)
(0.0603084 0.40509 -0.0017277)
(0.126338 0.460913 -0.00182054)
(0.153943 0.561918 -0.00222227)
(0.0729863 0.263269 -0.00103653)
(0.0621457 0.217298 -0.000865157)
(0.08154 0.285631 -0.00131365)
(0.0893871 0.322633 -0.00128758)
(0.455454 -0.190384 -0.0024744)
(0.213276 0.195819 5.93627e-05)
(0.26092 0.24264 -0.000778953)
(0.526664 -0.219779 -0.000707587)
(0.223555 0.968453 -0.0039474)
(0.57801 2.8312 -0.0113225)
(0.223495 0.968356 -0.00390141)
(0.552514 2.70604 -0.0109185)
(-0.0666657 -0.539106 0.000728652)
(-0.00180392 -0.0143933 2.56743e-05)
(-0.00156529 -0.0129254 1.96003e-05)
(0.211238 0.916397 -0.00122417)
(0.627141 3.07547 -0.00506015)
(0.202979 0.88054 -0.00144799)
(-0.0612261 -0.444681 0.00181693)
(0.176852 0.777854 -0.000617246)
(0.143804 0.663803 -0.00060325)
(0.177169 0.779297 -0.000711403)
(0.143633 0.662952 -0.000529038)
(0.0691068 0.253179 -0.000207261)
(0.0719581 0.26362 -0.000181654)
(-0.0334125 -0.245124 0.000211727)
(0.162551 0.804669 -0.000727145)
(0.0637888 0.335513 -0.000301518)
(0.0381138 0.138096 -0.000115073)
(0.0421857 0.152839 -0.00010657)
(1.39214 0.922773 -0.000395973)
(0.0339797 0.0319575 3.37044e-06)
(0.335073 -0.139066 7.0097e-06)
(0.0271177 0.0254783 -2.67121e-06)
(0.341812 -0.141798 2.51496e-06)
(-0.0215033 -0.135636 0.000546115)
(-0.0238947 -0.15035 0.000610906)
(-0.0405186 -0.252633 0.00104897)
(-0.0947724 -0.761918 0.00308097)
(-0.0354532 -0.221467 0.000915819)
(0.185085 0.801052 -0.00335906)
(0.19653 0.851361 -0.0035534)
(0.0999232 0.437015 -0.00174017)
(0.0748944 0.343532 -0.00136312)
(0.103541 0.452958 -0.00180732)
(0.0714788 0.327724 -0.00129588)
(0.0411047 0.187142 -0.000693047)
(0.0654063 0.284903 -0.00108415)
(0.0723271 0.315413 -0.00121806)
(0.0469862 0.214406 -0.0008137)
(0.0580932 0.21241 -0.000938582)
(0.05649 0.206411 -0.000912045)
(0.0623452 0.22726 -0.000979416)
(0.0584424 0.213129 -0.000929683)
(0.0129558 0.0660001 -0.000238924)
(0.0658483 0.322767 -0.00126008)
(-0.0688096 -0.499385 0.00206494)
(0.0224278 0.106905 -0.000335789)
(-0.00835241 -0.0467595 0.000243997)
(0.0295227 0.142278 -0.000493051)
(0.0314991 0.113895 -0.000509273)
(0.0301335 0.108873 -0.000486877)
(0.0336586 0.121276 -0.000525207)
(0.0310443 0.111908 -0.000492071)
(1.30629 0.864615 -0.00422449)
(1.27249 0.842253 -0.00403677)
(0.129031 0.121518 -0.000569065)
(0.363862 -0.151116 0.000378304)
(0.373931 -0.155297 0.000390537)
(0.116952 0.11013 -0.000519538)
(0.474845 -0.196965 0.000443631)
(0.219987 0.207145 -0.000935644)
(0.205829 0.193879 -0.000882568)
(0.455297 -0.188963 0.000440639)
(5.42947e-06 -0.0182549 2.96543e-05)
(0.000137589 -0.00856719 2.02148e-05)
(-0.051993 -0.511203 0.0012004)
(-6.05941e-05 -0.0229836 6.60057e-05)
(-1.85801e-05 -0.0199647 4.66163e-05)
(-0.0677154 -0.547083 0.00129427)
(-0.0548323 -0.538372 0.00175567)
(-0.000290313 -0.0395961 0.000142014)
(-0.000144425 -0.0290236 9.58452e-05)
(-0.0727281 -0.586724 0.00190064)
(-0.0732838 -0.59114 0.0019397)
(6.10512e-06 -0.0178787 7.40862e-05)
(-0.0584169 -0.572867 0.0021567)
(-0.000318499 -0.0415456 0.000157082)
(-0.0808368 -0.651068 0.00246535)
(1.36597 0.904384 -0.00435653)
(1.36235 0.901957 -0.00437736)
(1.35822 0.899183 -0.00439053)
(1.36392 0.90299 -0.00438557)
(0.222953 0.965864 -0.0039574)
(0.524806 2.57062 -0.0104461)
(0.544159 2.66512 -0.0107742)
(0.184937 0.801477 -0.00329576)
(0.180733 0.781784 -0.00328803)
(0.237891 1.07286 -0.00447527)
(0.268563 1.26606 -0.00522991)
(0.44304 2.16792 -0.0089228)
(0.182182 0.788191 -0.00331116)
(0.245123 1.10589 -0.0045977)
(0.258018 1.21599 -0.00503964)
(0.435567 2.13115 -0.00878784)
(1.38201 0.915938 -0.00198728)
(1.38494 0.917929 -0.00159316)
(1.38817 0.9201 -0.00109721)
(1.38723 0.919455 -0.0015338)
(0.498296 2.95419 -0.00292372)
(0.519644 3.08052 -0.00405818)
(-0.00119647 -0.0106717 1.18176e-05)
(-0.0665174 -0.537975 0.000672946)
(-0.00141252 -0.0119863 1.70273e-05)
(0.0213349 0.120583 -0.000200197)
(0.021597 0.122116 -0.000168804)
(0.0219582 0.124215 -0.00012238)
(0.0217724 0.123136 -0.000158222)
(0.213655 0.927127 -0.00089872)
(0.204389 0.88675 -0.00107371)
(0.650782 3.19245 -0.0040302)
(-0.0555885 -0.369039 0.00151851)
(-0.0444304 -0.276703 0.00115137)
(-0.0648154 -0.47052 0.00193046)
(-0.0464775 -0.289297 0.00120535)
(-0.0603564 -0.400377 0.00165445)
(0.430261 3.68288 -0.00293816)
(0.444694 3.8054 -0.00255328)
(0.0836303 0.310938 -0.00016065)
(0.10804 0.443317 0.000333254)
(0.108081 0.443507 -0.000886745)
(0.0834839 0.310413 -0.000216603)
(0.140273 0.64676 -0.000409571)
(0.175555 0.77198 -0.000434697)
(0.1767 0.777135 -0.000528687)
(0.143296 0.661231 -0.00045462)
(0.108005 0.443197 0.000227177)
(0.0832471 0.309552 -0.000291027)
(0.107868 0.442639 -0.000989079)
(0.0834023 0.310117 -0.000237465)
(0.067896 1.02416 -0.000487756)
(-0.00326056 1.50698 -0.00067833)
(-0.00325939 1.49015 -0.000983254)
(0.0688011 1.03825 -0.000717571)
(-0.0685771 1.67191 -0.00118356)
(1.3913 0.922169 -0.00080525)
(-0.0622747 1.51836 -0.00135928)
(-0.0703869 1.71751 -0.000763429)
(-0.0697745 1.70136 -0.00109187)
(1.39248 0.92294 -0.000711996)
(-0.00319717 1.45681 -0.00104867)
(0.0757652 1.14636 -0.00103225)
(-0.00284459 1.29041 -0.00118758)
(0.069212 1.04558 -0.00076271)
(0.306118 1.38489 -0.000633201)
(0.239627 1.04003 -0.000609323)
(0.637366 3.12723 -0.00224027)
(0.369175 1.74539 -0.00149221)
(0.336421 1.59063 -0.000724037)
(0.633079 3.10602 -0.00192573)
(0.237369 1.03022 -0.000748962)
(0.323513 1.46343 -0.00124165)
(0.0767459 0.30141 -0.000171335)
(0.0685715 0.269085 -0.000184881)
(0.0651939 0.239009 -9.11204e-05)
(0.0715393 0.262094 -0.000162526)
(0.0670095 0.262917 -0.000192963)
(0.703313 4.39943 -0.00276928)
(0.454907 2.69676 -0.00176574)
(0.732206 4.58173 -0.00300995)
(0.449145 3.00369 -0.00232166)
(0.443095 2.96247 -0.00193503)
(0.477678 2.83198 -0.00209605)
(-0.0314639 -0.231556 0.000133928)
(-0.019948 -0.135097 0.000119054)
(-0.000939635 -0.0092058 8.19555e-06)
(-0.019118 -0.130259 7.61114e-05)
(-0.000846257 -0.0088135 7.03802e-06)
(0.0630985 0.331347 -0.000187123)
(0.160317 0.792744 -0.000449884)
(0.162664 0.804902 -0.000548686)
(0.0480842 0.259104 -0.000231581)
(0.0221873 0.125442 -9.76771e-05)
(0.0481364 0.258869 -0.000148215)
(0.0222816 0.125821 -8.40489e-05)
(0.0386849 0.140259 -4.92834e-05)
(0.0430166 0.155863 -9.95104e-05)
(0.0663512 0.241818 -0.00103046)
(0.0688234 0.250811 -0.00106151)
(0.0323171 0.112886 -0.000486847)
(0.0363867 0.131086 -0.000560016)
(0.0382614 0.133653 -0.000561069)
(0.0380879 0.137209 -0.000581534)
(0.274884 0.807107 -0.000343195)
(0.27502 0.807386 -0.000208147)
(0.285867 0.664285 -0.000225533)
(0.285742 0.663969 -0.00018726)
(-0.196725 1.82261 -0.000321028)
(-0.0660828 1.61409 -0.000407536)
(1.39114 0.922476 -0.000394668)
(-0.881821 2.86741 -0.00093673)
(-0.0682993 1.66762 -0.000530487)
(-0.209072 1.93538 -0.000705271)
(0.0687786 0.252055 -4.64398e-05)
(0.068086 0.249521 -3.82947e-05)
(0.0406324 0.147265 -1.20062e-05)
(0.0403861 0.141952 -1.1175e-05)
(0.0338428 0.118983 6.22247e-07)
(0.038178 0.138371 -8.58813e-06)
(0.415398 2.45617 -0.00988063)
(0.381698 2.2567 -0.00914107)
(-0.000760031 -0.00742269 4.25882e-05)
(-0.0034825 -0.0231678 0.000107395)
(-0.0281467 -0.176512 0.000724064)
(-0.0249759 -0.157002 0.000639414)
(-0.00830773 -0.0510692 0.000223396)
(-0.00472735 -0.0303666 0.000136912)
(1.34131 0.887909 -0.00435393)
(1.35162 0.894768 -0.00438285)
(1.35909 0.899748 -0.00439466)
(1.35244 0.895315 -0.00438417)
(-0.0224246 -0.132684 0.000566168)
(-0.0166291 -0.0991798 0.000424659)
(0.348804 2.06109 -0.0083523)
(0.37234 2.2011 -0.00892233)
(-0.0933036 -0.750222 0.00302841)
(-0.0295762 -0.185308 0.000761413)
(-0.0336939 -0.210644 0.000869885)
(-0.0099515 -0.0605736 0.0002628)
(-0.0145911 -0.0873981 0.000375356)
(0.19949 0.864275 -0.00358573)
(0.514176 2.51843 -0.0102743)
(0.189651 0.821812 -0.00339057)
(0.4803 2.35165 -0.00964752)
(0.283458 2.40962 -0.00974073)
(0.291831 2.48123 -0.0100398)
(0.0639982 0.261483 -0.000711867)
(0.0518467 0.192063 -0.000776659)
(0.0546807 0.202604 -0.000821372)
(0.0600498 0.245253 -0.00128911)
(0.0949055 0.414908 -0.00164639)
(0.0628693 0.287898 -0.00112808)
(0.0904615 0.395329 -0.00156218)
(0.0669518 0.30678 -0.00120869)
(0.0580131 0.215001 -0.000873733)
(0.0556246 0.206115 -0.000836602)
(0.0688193 0.281305 -0.000770445)
(-0.00214394 1.37362 -0.00542635)
(0.0576174 0.860566 -0.00343809)
(0.0589343 0.880365 -0.00351606)
(-0.00209186 1.34658 -0.00531924)
(-0.0637798 1.57933 -0.00619877)
(1.33818 0.885819 -0.00434201)
(-0.0645145 1.59724 -0.00626906)
(-0.00216224 1.38294 -0.00546125)
(0.0604185 0.902719 -0.00360268)
(-0.00219387 1.39615 -0.00551263)
(0.0593716 0.886944 -0.00354178)
(-0.0633451 1.56866 -0.00615876)
(1.33498 0.883696 -0.00433113)
(-0.0621432 1.53915 -0.00604208)
(0.31768 2.70182 -0.0108877)
(0.311758 2.65123 -0.0106917)
(0.0414962 0.153567 -0.00061131)
(0.045772 0.16947 -0.000679886)
(0.0535399 0.218495 -0.00114017)
(0.0506357 0.187559 -0.000757451)
(0.0582398 0.237813 -0.000641208)
(0.0472127 0.174827 -0.000702685)
(0.0789825 0.344744 -0.00134584)
(0.0574804 0.262972 -0.00102253)
(0.0842346 0.367893 -0.0014456)
(0.0527241 0.240966 -0.00092792)
(-0.0572278 1.41815 -0.00556667)
(-0.0594849 1.47381 -0.00578367)
(1.3147 0.870226 -0.00425924)
(0.052153 0.778531 -0.00311427)
(-0.00187404 1.2271 -0.00484841)
(-0.00197168 1.28275 -0.00506629)
(0.0545034 0.813782 -0.00325387)
(-0.00200165 1.29903 -0.00513083)
(0.057052 0.85205 -0.00340528)
(0.0553032 0.825789 -0.0033003)
(-0.00206826 1.33492 -0.00527481)
(-0.0601489 1.49014 -0.00584822)
(1.31846 0.872722 -0.00427143)
(-0.0616581 1.52726 -0.00599721)
(0.0759553 0.297371 -0.00128166)
(0.0761948 0.298175 -0.00128584)
(0.0560011 0.204439 -0.000901439)
(0.056141 0.205089 -0.000906222)
(0.0762677 0.298776 -0.00128615)
(0.242378 1.1417 -0.00474944)
(0.406583 1.98842 -0.00824876)
(0.227922 1.02721 -0.00429648)
(0.176832 0.764351 -0.00322981)
(0.177859 0.768956 -0.00324449)
(0.23502 1.05977 -0.00442454)
(0.414604 2.028 -0.00837832)
(0.253889 1.19641 -0.00496469)
(0.0776117 0.303481 -0.00130406)
(0.0772214 0.302005 -0.0012993)
(0.0762171 0.298215 -0.00128581)
(0.0560879 0.20471 -0.000901771)
(0.0576247 0.210187 -0.000919739)
(0.26431 1.75906 -0.00716062)
(0.421049 2.62433 -0.0107064)
(0.27712 1.6361 -0.00668666)
(0.283835 1.67589 -0.00684633)
(0.452022 2.81788 -0.0114672)
(0.442247 2.75687 -0.0112294)
(0.271092 1.80435 -0.00732986)
(-0.00256473 -0.0166547 9.83717e-05)
(-0.0269917 -0.159088 0.00067754)
(0.04943 0.241227 -0.000916785)
(0.00482888 0.0230477 -5.78444e-05)
(-0.0294506 -0.173302 0.000737955)
(-0.0102806 -0.0585732 0.000275794)
(-0.0660226 -0.43776 0.00182459)
(-0.054088 -0.336176 0.00141162)
(-0.0659839 -0.478924 0.00196907)
(-0.0523097 -0.325195 0.00136107)
(-0.061963 -0.410946 0.0017019)
(0.463281 2.88828 -0.0117436)
(0.472537 2.94615 -0.0119672)
(0.294576 1.96123 -0.00794098)
(0.288637 1.92155 -0.0077867)
(-0.0221528 -0.123228 0.000557341)
(-0.0390248 -0.228703 0.000978072)
(0.042773 0.208161 -0.000776065)
(0.00151849 0.00554901 1.63382e-05)
(0.0365076 0.177024 -0.000644044)
(-0.0366243 -0.214785 0.000916309)
(-0.0133108 -0.0750387 0.000346073)
(0.029513 0.106516 -0.000475032)
(0.0298193 0.107708 -0.000481659)
(0.0295473 0.106611 -0.000474795)
(0.0304942 0.109948 -0.000485408)
(0.114926 0.336328 -0.00133539)
(0.140592 0.411657 -0.00166936)
(0.188117 0.436189 -0.00182459)
(0.182793 0.423833 -0.00177104)
(0.155536 0.360578 -0.00149464)
(0.163635 0.379383 -0.00158031)
(0.147539 0.432054 -0.00175903)
(-0.593344 1.93335 -0.00724911)
(1.30074 0.86094 -0.0042012)
(-0.0558294 1.38379 -0.00542888)
(-0.16691 1.55471 -0.00603337)
(-0.565853 1.84395 -0.00697272)
(-0.496753 1.6182 -0.00597123)
(-0.514646 1.67683 -0.00629125)
(-0.144307 1.34493 -0.00521383)
(-0.0500332 1.24096 -0.00486186)
(1.2829 0.84909 -0.00411769)
(-0.548712 1.78823 -0.00670907)
(0.0878887 0.320368 -0.00130439)
(0.0810281 0.295338 -0.00121887)
(0.142338 0.134063 -0.000623526)
(0.399651 -0.165981 0.000420989)
(0.386124 -0.16036 0.000405224)
(0.156115 0.147051 -0.000677882)
(0.0544371 0.190287 -0.000764711)
(0.0507965 0.183058 -0.000743223)
(0.0462629 0.166694 -0.000687008)
(0.0410147 0.143279 -0.0005951)
(0.18718 0.176329 -0.000805603)
(0.416308 -0.172889 0.000429484)
(0.433947 -0.180177 0.000440036)
(0.171847 0.161882 -0.000740447)
(0.618459 3.0327 -0.00521773)
(0.211226 0.916192 -0.00157703)
(0.226735 0.983192 -0.00189749)
(0.698057 3.4227 -0.00666293)
(0.230516 0.999304 -0.00306716)
(0.687764 3.37086 -0.00989151)
(0.243422 1.05522 -0.00308889)
(0.635617 3.11505 -0.00958841)
(0.18879 0.818384 -0.00303952)
(0.592133 2.9013 -0.0105106)
(0.218412 0.946676 -0.00346667)
(0.580148 2.84277 -0.0105007)
(-0.066847 -0.540462 0.000832573)
(-0.0340064 -0.249174 0.000410357)
(-0.0473687 -0.344948 0.00136016)
(-0.05988 -0.43499 0.0017747)
(-0.0975486 -0.784026 0.00317996)
(-0.0524067 -0.515113 0.0013501)
(-0.00528597 -0.159465 0.000445344)
(-0.00522491 -0.157778 0.000403839)
(9.49508e-05 -0.011636 3.4954e-05)
(0.000139364 -0.00843363 2.0698e-05)
(-0.00194683 -0.0152742 2.84554e-05)
(-0.0671684 -0.542867 0.00107196)