/*--------------------------------*- C++ -*----------------------------------*\
| =========                 |                                                 |
| \\      /  F ield         | OpenFOAM: The Open Source CFD Toolbox           |
|  \\    /   O peration     | Version:  2306                                  |
|   \\  /    A nd           | Website:  www.openfoam.com                      |
|    \\/     M anipulation  |                                                 |
\*---------------------------------------------------------------------------*/
FoamFile
{
    version     2.0;
    format      ascii;
    arch        "LSB;label=32;scalar=64";
    class       volScalarField;
    location    "0.15";
    object      p;
}
// * * * * * * * * * * * * * * * * * * * * * * * * * * * * * * * * * * * * * //

dimensions      [0 2 -2 0 0 0 0];

internalField   nonuniform List<scalar> 
111542
(
59.766
61.1138
64.308
69.5116
76.8014
86.3875
98.4233
112.925
129.377
146.324
161.177
169.918
168.546
155.97
135.37
112.488
91.2144
72.9285
57.7092
45.4173
35.7047
28.2647
22.6949
18.4723
15.2732
12.8382
10.8894
9.38355
8.25723
7.37132
6.6334
5.98131
5.42723
4.90751
4.38557
3.84315
3.25501
2.6445
1.92998
1.02734
58.7137
60.0228
63.1858
68.329
75.6105
85.3456
97.8991
113.508
131.982
152.212
171.449
184.137
182.727
166.061
140.105
113.505
90.2913
70.9981
55.3463
43.0024
33.5495
26.4513
21.1478
17.2288
14.2853
12.0173
10.2539
8.8988
7.85148
7.00898
6.29941
5.67818
5.12168
4.5979
4.08386
3.56766
3.03763
2.47842
1.83256
1.01366
56.63
57.873
60.8943
65.8544
73.0222
82.9059
96.2107
113.731
136.103
163.13
191.41
212.246
211.531
185.531
149.208
116.27
89.3794
68.0394
51.4947
39.0027
29.9019
23.5398
18.9344
15.4981
12.6955
10.442
8.7639
7.55601
6.66521
5.97698
5.41882
4.94098
4.50737
4.09327
3.68376
3.27547
2.86928
2.45668
1.9889
1.32814
53.5659
54.6816
57.4071
61.9489
68.6885
78.3524
92.0849
111.575
139.209
178.196
213.029
255.046
259.757
218.1
165.643
125.416
92.8872
68.1639
50.0011
36.8514
23.7899
18.1458
15.5314
13.8678
11.7991
9.76119
8.16487
6.9718
6.03748
5.27611
4.64304
4.10178
3.62246
3.18387
2.77888
2.41622
2.11504
1.90173
1.78741
1.72022
49.6311
50.5361
52.7587
56.5221
62.2624
70.8258
83.6568
103.176
133.4
178.146
254.898
340.374
362.731
253.779
169.116
121.024
82.286
56.0437
38.6477
27.5757
20.9017
8.82525
7.41956
7.2203
6.25375
5.35061
4.78046
4.39643
4.08225
3.79995
3.52998
3.25052
2.94833
2.6205
2.28258
1.96955
1.74113
1.69929
2.01737
3.021
45.021
45.6237
47.1129
49.6719
53.6746
59.8586
69.5584
85.2356
111.666
166.442
260.107
454.394
617.193
243.136
170.92
112.704
66.3761
40.2944
24.7297
15.3984
12.4317
13.3838
12.831
8.2121
5.0179
3.52984
2.7666
2.23646
1.84719
1.58831
1.42836
1.32624
1.24879
1.17412
1.09324
1.01499
0.981383
1.09993
1.64158
3.36245
40.029
40.2562
40.8209
41.8079
43.3968
45.9289
49.994
56.5888
67.4348
107.012
183.056
413.712
1948.53
-424.865
205.831
76.2909
30.9763
15.8055
7.23037
-2.25571
-6.15512
14.6237
14.3979
8.88879
5.47979
4.13351
3.54993
3.16944
2.91539
2.78647
2.74874
2.75703
2.77711
2.78345
2.76061
2.70197
2.60208
2.46067
2.23029
1.6458
35.0253
34.8489
34.4073
33.6626
32.5446
30.8817
28.2739
23.7819
15.0333
17.4078
0.695062
-160.829
-1006.4
-1047.81
-313.579
-101.543
-46.3256
-26.0547
-17.0465
-10.8869
-4.13627
-9.10943
-6.6923
-4.63455
-3.52195
-2.45391
-1.42435
-0.583259
0.0764169
0.611394
1.05075
1.39986
1.65754
1.82012
1.88279
1.83745
1.65993
1.29746
0.61794
-0.69586
30.4172
29.8663
28.4762
26.1123
22.5032
17.0921
8.85975
-4.08385
-25.3603
-48.6263
-122.343
-267.218
-478.17
-507.018
-320.538
-175.188
-100.525
-61.2843
-39.3328
-25.4395
-15.639
-9.13676
-4.84897
-1.74909
0.0827731
1.22163
2.05392
2.67581
3.12285
3.43841
3.65376
3.78113
3.82086
3.7676
3.6112
3.33673
2.91343
2.28352
1.33568
-0.148525
26.6007
25.7276
23.569
19.9115
14.3721
6.22608
-5.73073
-23.4665
-50.2626
-91.7352
-149.752
-222.725
-288.243
-296.381
-238.653
-165.485
-110.228
-74.7647
-51.7227
-35.7227
-24.4069
-16.9773
-11.8321
-8.07218
-5.37825
-3.43472
-1.95058
-0.779836
0.138832
0.848907
1.38654
1.77489
2.02449
2.13783
2.10921
1.93039
1.58149
1.03039
0.241393
-0.779722
23.8835
22.7909
20.098
15.5703
8.78311
-0.990253
-14.853
-34.2943
-61.1744
-97.3432
-142.729
-192.094
-230.742
-237.857
-207.404
-158.607
-114.283
-81.9144
-59.1273
-42.4704
-30.0647
-20.9722
-14.2518
-9.2669
-5.60223
-2.92707
-0.956528
0.508864
1.5919
2.37457
2.91728
3.26184
3.43367
3.44479
3.29045
2.98234
2.50601
1.83635
0.943791
-0.219815
22.4729
21.2779
18.3021
13.3638
5.96377
-4.5318
-19.1399
-39.0013
-65.2654
-98.2703
-136.487
-174.487
-202.312
-208.426
-188.731
-152.82
-115.442
-85.06
-62.4182
-45.4598
-32.6083
-22.9801
-15.8853
-10.6838
-6.91287
-4.16359
-2.13909
-0.63356
0.488008
1.31362
1.90367
2.29888
2.52591
2.60266
2.47368
2.21698
1.80266
1.20457
0.414062
-0.557739
59.1605
60.4595
63.5825
68.6244
75.6797
84.9517
96.6261
110.676
126.591
143.001
157.386
165.8
164.292
151.962
131.906
109.67
89.0549
71.2974
56.4821
44.4613
34.973
27.6657
22.143
18.0027
14.8733
12.4585
10.5685
9.11295
8.00388
7.13583
6.42542
5.81698
5.2791
4.77396
4.27361
3.76104
3.21998
2.63185
1.94078
1.06607
58.1201
59.3966
62.4697
67.4532
74.5043
83.931
96.0926
111.214
129.116
148.745
167.421
179.782
178.066
161.672
136.39
110.597
88.1151
69.3857
54.1406
42.0763
32.7976
25.7703
20.5049
16.6733
13.8285
11.6333
9.92836
8.61746
7.60092
6.78536
6.1033
5.51041
4.97653
4.47428
3.98482
3.4964
2.99837
2.46834
1.85234
1.05643
56.0671
57.2822
60.213
65.0163
71.9547
81.5228
94.4076
111.386
133.093
159.355
186.842
206.973
206.198
180.596
145.165
113.253
87.22
66.4896
50.3476
38.0962
29.062
22.6643
18.082
14.7357
12.039
9.89535
8.32571
7.216
6.4068
5.7828
5.27415
4.83376
4.42785
4.03455
3.64321
3.25316
2.86765
2.47767
2.03188
1.37752
53.0511
54.1425
56.7833
61.1757
67.6929
77.0425
90.3419
109.247
136.122
174.165
209.446
250.732
255.059
213.547
162.104
122.87
91.1185
66.8963
49.0362
36.0102
22.1722
16.0339
14.17
13.0795
11.2022
9.23938
7.71204
6.58556
5.7087
4.99659
4.40708
3.90433
3.4597
3.05328
2.6796
2.34971
2.08575
1.91387
1.84215
1.80175
49.1814
50.0664
52.2155
55.8463
61.3869
69.6636
82.0922
101.058
130.544
175.331
251.192
335.584
356.84
248.134
165.243
118.704
80.8472
54.988
37.7395
26.5769
18.7939
2.55613
2.96146
4.56224
4.5265
4.1796
4.00141
3.88268
3.7297
3.53387
3.30233
3.03371
2.7314
2.40256
2.06924
1.77183
1.57324
1.57501
1.94921
3.02471
44.6519
45.2392
46.6719
49.1273
52.9734
58.934
68.3242
83.5853
109.481
164.237
257.715
450.72
611.318
237.15
165.447
112.281
66.0618
39.904
24.2394
14.599
7.14308
12.4046
11.941
7.38962
4.28712
2.90938
2.23842
1.7726
1.42504
1.19367
1.05479
0.973044
0.921182
0.878792
0.840141
0.815966
0.849718
1.04882
1.67489
3.43309
39.7493
39.969
40.4994
41.4215
42.9152
45.3193
49.2225
55.636
66.3359
105.939
182.21
415.129
1931.53
175.48
79.2569
31.2566
15.6042
6.37343
-4.90997
-10.8353
16.0194
15.0478
8.65032
4.82595
3.35067
2.73006
2.34302
2.09704
1.98168
1.95914
1.98514
2.02938
2.0687
2.09123
2.09199
2.07062
2.02527
1.9075
1.43724
34.8288
34.6674
34.214
33.4461
32.3025
30.6207
28.0205
23.6108
15.124
17.6339
1.63662
-155.764
-982.852
-1036.36
-307.136
-99.6222
-45.4415
-25.871
-17.2889
-11.1872
-1.86185
-6.71652
-5.30232
-4.15146
-3.44226
-2.55149
-1.63651
-0.874517
-0.261186
0.251815
0.685712
1.04164
1.31647
1.50473
1.60241
1.60205
1.48258
1.19074
0.591634
-0.654143
30.32
29.7897
28.4008
26.0556
22.4866
17.155
9.07689
-3.57792
-24.332
-47.4644
-119.731
-262.431
-470.492
-496.814
-314.397
-171.475
-98.3477
-60.1593
-38.8178
-25.1832
-15.0536
-8.36245
-4.65513
-2.00132
-0.320816
0.770821
1.57315
2.1726
2.6051
2.91135
3.12142
3.24843
3.29418
3.2553
3.12387
2.88683
2.51515
1.95211
1.08876
-0.282089
26.5765
25.7103
23.597
19.9932
14.5433
6.54999
-5.15444
-22.4787
-48.616
-89.0781
-145.707
-216.957
-281.059
-288.617
-232.067
-160.879
-107.408
-73.1981
-50.9201
-35.3692
-24.2856
-16.8949
-11.8911
-8.24478
-5.61578
-3.71713
-2.26903
-1.12677
-0.22974
0.465101
0.994491
1.38217
1.63905
1.76796
1.76467
1.62063
1.31654
0.820203
0.0958261
-0.852084
23.9207
22.8477
20.2012
15.7471
9.08697
-0.490503
-14.0527
-33.0458
-59.2738
-94.5436
-138.772
-186.822
-224.454
-231.42
-201.712
-154.385
-111.504
-80.2359
-58.1783
-41.9928
-29.8916
-20.981
-14.3727
-9.48712
-5.90329
-3.2845
-1.34935
0.0942866
1.1633
1.93701
2.47545
2.82073
2.99858
3.02236
2.89463
2.61735
2.17927
1.55798
0.726095
-0.35624
22.5474
21.3614
18.4509
13.5795
6.33976
-3.94595
-18.2351
-37.6475
-63.2553
-95.4581
-132.712
-169.718
-196.81
-202.852
-183.796
-148.895
-112.678
-83.308
-61.38
-44.9046
-32.3724
-22.9558
-15.9994
-10.9108
-7.20066
-4.4887
-2.48954
-1.00084
0.109721
0.928666
1.51603
1.91255
2.14353
2.22067
2.13938
1.91218
1.52856
0.971041
0.232762
-0.664765
58.0278
59.2564
62.2003
66.9336
73.5471
82.2312
93.16
106.293
121.145
136.444
149.779
157.443
155.783
143.946
124.928
103.973
84.5924
67.8582
53.8394
42.4211
33.3868
26.3869
21.0493
17.0347
13.9974
11.648
9.81274
8.39078
7.29457
6.43599
5.74059
5.1545
4.63969
4.16716
3.71379
3.26236
2.79598
2.2893
1.69714
0.955687
57.0135
58.2247
61.117
65.792
72.3978
81.2214
92.5963
106.727
123.447
141.771
159.196
170.461
168.644
152.914
128.968
104.732
83.6412
66.0019
51.5775
40.1343
31.328
24.5756
19.4777
15.7764
13.033
10.8962
9.21295
7.89993
6.87176
6.048
5.36766
4.78784
4.2768
3.8104
3.37133
2.94746
2.52661
2.08543
1.57446
0.914812
55.018
56.1715
58.925
63.4229
69.9122
78.8547
90.8928
106.758
127.064
151.679
177.466
196.412
195.115
170.441
136.929
107.065
82.7095
63.2093
47.9505
36.3799
27.9953
21.8523
17.2965
13.9838
11.3632
9.27234
7.70786
6.57496
5.73614
5.08866
4.56874
4.1317
3.74385
3.38483
3.04393
2.72159
2.41897
2.12716
1.79503
1.27135
52.0908
53.1257
55.5997
59.6997
65.7778
74.4977
86.9111
104.591
129.817
165.732
200.544
240.03
243.551
202.941
153.798
116.903
86.8973
63.8788
46.8381
34.3938
21.2178
15.9089
13.9408
12.5187
10.3792
8.22328
6.54392
5.30489
4.35876
3.61946
3.03882
2.57545
2.19502
1.87351
1.60304
1.3934
1.26556
1.24623
1.34833
1.52879
48.3417
49.1788
51.1812
54.551
59.6937
67.3892
78.9809
96.7529
124.581
168.344
241.618
323.156
342.431
235.308
156.532
113.273
77.2675
52.5031
35.9439
25.2568
18.5073
3.86252
4.23793
5.32627
4.74579
3.91472
3.35454
2.95123
2.5951
2.26583
1.96097
1.67258
1.39919
1.1403
0.914163
0.75629
0.728273
0.930633
1.53617
2.87497
43.9601
44.5135
45.8321
48.0808
51.6122
57.1144
65.8481
80.1782
104.795
158.489
250.392
439.547
594.256
222.839
157.625
107.241
62.8418
37.737
22.8628
13.9581
12.6471
11.7658
10.2653
4.78801
1.06854
-0.75491
-1.67636
-2.23153
-2.56353
-2.71193
-2.71994
-2.63597
-2.48211
-2.28585
-2.05322
-1.77347
-1.40068
-0.823798
0.228133
2.49196
39.2329
39.4242
39.8827
40.6748
41.9757
44.1134
47.6605
53.6378
63.9013
103.011
178.952
410.156
1905.14
188.69
80.5312
30.3321
14.5185
6.0708
-4.45789
-11.9778
11.6014
11.1123
5.22862
1.8156
0.574868
0.0724381
-0.242286
-0.431253
-0.491833
-0.450586
-0.342526
-0.193959
-0.0194431
0.171246
0.375234
0.597809
0.839322
1.05836
0.954701
34.4597
34.3073
33.8336
33.0228
31.8263
30.0982
27.4967
23.2221
15.2222
18.0839
3.71272
-148.339
-969.315
-1006.77
-293.795
-92.1702
-42.0061
-24.7521
-17.2557
-11.7404
-4.42439
-8.37346
-7.37309
-6.34112
-5.45777
-4.3659
-3.29563
-2.40492
-1.67855
-1.06773
-0.546016
-0.105826
0.253953
0.5325
0.734841
0.856449
0.884148
0.767924
0.373478
-0.667863
30.1241
29.6
28.2466
25.9415
22.4494
17.2722
9.49588
-2.58295
-22.2602
-44.5212
-113.388
-250.638
-451.748
-476.648
-299.591
-162.255
-93.2854
-57.6898
-37.7698
-24.9151
-15.3926
-9.67322
-6.1487
-3.45281
-1.68662
-0.522543
0.341474
0.997081
1.48048
1.83294
2.08968
2.26766
2.37252
2.40198
2.35434
2.21835
1.96884
1.55195
0.858652
-0.332809
26.5284
25.6989
23.6336
20.1341
14.8631
7.16989
-4.03425
-20.5311
-45.3184
-83.6296
-137.267
-204.838
-265.751
-272.854
-219.084
-151.922
-101.948
-70.1248
-49.3071
-34.6875
-24.2952
-17.5318
-12.6191
-8.96771
-6.38604
-4.52978
-3.08456
-1.91652
-0.980581
-0.24111
0.337208
0.777389
1.09147
1.28048
1.34576
1.27949
1.06458
0.669819
0.0539905
-0.808618
23.9773
22.9383
20.3764
16.0719
9.65635
0.46327
-12.5024
-30.5924
-55.4948
-88.9104
-130.764
-176.208
-211.878
-218.548
-190.556
-146.064
-105.947
-76.7577
-56.0908
-40.8453
-29.4197
-20.9948
-14.6347
-9.89622
-6.43274
-3.90101
-2.01242
-0.585057
0.485699
1.2728
1.834
2.21057
2.42835
2.5004
2.43356
2.22618
1.86808
1.33841
0.606404
-0.384555
22.6616
21.5118
18.699
13.9967
7.03511
-2.8285
-16.4821
-34.9734
-59.2947
-89.8236
-125.087
-160.089
-185.741
-191.575
-173.767
-141.064
-107.17
-79.7
-59.1214
-43.5811
-31.7131
-22.7663
-16.1113
-11.1993
-7.5968
-4.96025
-3.0107
-1.54663
-0.441107
0.386983
0.994137
1.41949
1.68707
1.80839
1.78743
1.62264
1.30694
0.826583
0.169809
-0.664799
56.4714
57.5961
60.2777
64.5748
70.5631
78.4056
88.2461
100.03
113.303
126.903
138.636
145.154
143.275
132.21
114.772
95.717
78.1176
62.8637
50.015
39.5002
31.1462
24.6083
19.5235
15.6248
12.668
10.4081
8.66593
7.32626
6.29828
5.49937
4.86063
4.33161
3.87652
3.46913
3.08862
2.72022
2.34934
1.95057
1.48238
0.880941
55.4895
56.6035
59.2352
63.4717
69.4418
77.3948
87.6169
100.275
115.201
131.502
146.942
156.522
154.537
139.934
118.092
96.1755
77.0949
61.043
47.8449
37.3511
29.2736
22.9036
17.9455
14.3024
11.6375
9.59985
8.01004
6.77706
5.81995
5.06277
4.44725
3.93202
3.48756
3.09239
2.73132
2.39443
2.07278
1.74477
1.36234
0.840738
53.5729
54.6316
57.1291
61.1901
67.0325
75.062
85.8419
100.015
118.127
140.071
163.031
179.827
177.898
155.035
124.697
97.9114
76.0019
58.3309
44.4323
33.9527
26.6455
20.6172
15.6377
12.1852
9.76857
7.94693
6.57762
5.56907
4.81495
4.22937
3.75818
3.36462
3.02204
2.71234
2.43103
2.18107
1.96533
1.77607
1.565
1.16867
50.7656
51.7122
53.9443
57.6232
63.062
70.849
81.917
97.6725
120.193
152.414
185.661
221.786
224.142
185.728
140.751
107.501
80.1422
59.0369
43.3563
31.9656
20.1559
15.221
11.9128
9.76553
7.78264
6.03397
4.69936
3.71503
2.95992
2.36354
1.88898
1.51193
1.20891
0.962753
0.779425
0.673797
0.672604
0.80618
1.08705
1.43991
47.1797
47.9407
49.7292
52.72
57.2768
64.0956
74.3815
90.2005
115.138
156.402
224.331
300.373
316.904
214.35
143.254
104.884
71.3884
48.2377
32.7219
22.5887
15.2892
0.674993
1.61125
3.12884
2.84339
2.13243
1.57
1.10863
0.678464
0.279704
-0.0784028
-0.384511
-0.640425
-0.842661
-0.964397
-0.968197
-0.790879
-0.329792
0.589712
2.29911
42.9954
43.4968
44.6462
46.5917
49.6537
54.4507
62.1207
74.8375
97.0088
147.922
235.97
417.732
562.207
196.117
143.715
103.968
60.1183
35.1353
20.4194
11.2936
0.942767
-3.04381
-0.702667
-1.42339
-2.79242
-3.61464
-4.08954
-4.46992
-4.78138
-4.98554
-5.06644
-5.03921
-4.89087
-4.64308
-4.2892
-3.80929
-3.15356
-2.20039
-0.675874
2.02713
38.4843
38.6575
39.0095
39.6081
40.6165
42.3287
45.2652
50.3958
59.5675
97.0141
171.566
404.293
1853.41
160.472
86.5767
29.4461
11.7375
2.88826
-7.67682
-16.0024
11.8437
9.54325
3.05646
-0.732052
-2.5072
-3.50185
-4.16974
-4.58908
-4.78397
-4.79316
-4.65106
-4.39417
-4.04854
-3.61368
-3.09278
-2.4744
-1.73831
-0.892136
-0.198658
33.9764
33.8006
33.2896
32.4129
31.1289
29.3054
26.6438
22.4533
14.9785
18.0856
6.40794
-130.931
-905.517
-965.84
-270.819
-81.1854
-38.6117
-24.6225
-18.2844
-13.0493
-3.97151
-8.96774
-8.23472
-7.30537
-6.42614
-5.44794
-4.51794
-3.73978
-3.1009
-2.55935
-2.0862
-1.65657
-1.28464
-0.958953
-0.664673
-0.401763
-0.176262
-0.0227152
-0.0618795
-0.695106
29.8521
29.339
28.0177
25.7659
22.3766
17.4059
10.0393
-1.23446
-19.3474
-40.0104
-103.27
-230.295
-418.237
-441.725
-274.304
-147.791
-86.0047
-54.4479
-36.6144
-24.9738
-16.5114
-12.4662
-7.87548
-4.42778
-2.59796
-1.62449
-0.962447
-0.472528
-0.119036
0.139972
0.341729
0.503691
0.626356
0.709579
0.753606
0.747876
0.671074
0.47866
0.0742776
-0.731548
26.4465
25.652
23.6678
20.3169
15.2976
8.02839
-2.46296
-17.7619
-40.5453
-75.5357
-124.439
-186.026
-241.529
-247.998
-199.214
-138.697
-94.1032
-65.7406
-47.0185
-33.786
-24.4828
-18.6616
-13.3725
-9.39104
-6.83756
-5.12232
-3.79577
-2.71497
-1.84574
-1.15438
-0.60476
-0.173004
0.150947
0.370792
0.491324
0.505263
0.398098
0.143284
-0.298407
-0.952254
24.034
23.0415
20.5989
16.5071
10.437
1.79106
-10.3205
-27.0984
-50.0436
-80.6702
-118.884
-160.271
-192.79
-198.976
-173.771
-133.789
-97.8714
-71.6995
-53.0202
-39.1368
-28.7168
-21.0159
-14.9401
-10.2921
-6.92199
-4.50089
-2.71423
-1.37373
-0.375765
0.353568
0.874122
1.22908
1.44517
1.53688
1.51337
1.3728
1.10543
0.693984
0.113404
-0.663997
22.7935
21.6959
19.0214
14.5643
7.99348
-1.26942
-14.019
-31.1807
-53.6256
-81.6632
-113.923
-145.867
-169.289
-174.767
-158.886
-129.597
-99.1982
-74.4723
-55.8161
-41.6174
-30.7162
-22.454
-16.2099
-11.4816
-7.97194
-5.4165
-3.54463
-2.14726
-1.09552
-0.308984
0.26901
0.678749
0.945237
1.08204
1.09526
0.98315
0.738398
0.350509
-0.18867
-0.863637
54.6116
55.6091
57.9686
61.732
66.9532
73.7555
82.2374
92.3159
103.558
114.928
124.524
129.532
127.322
117.29
101.945
85.3247
69.9557
56.5435
45.1468
35.7435
28.2268
22.3162
17.6684
14.0307
11.2276
9.07504
7.4143
6.13343
5.14712
4.3816
3.77634
3.28659
2.88091
2.53623
2.23009
1.95083
1.68777
1.41242
1.09332
0.685444
53.6733
54.6622
56.9725
60.6712
65.8582
72.7291
81.4999
92.2706
104.846
118.401
130.981
138.424
136.113
123.108
104.147
85.2458
68.7064
54.6595
43.0069
33.6856
26.5083
20.829
16.3241
12.8717
10.2716
8.26766
6.69992
5.4799
4.53467
3.79622
3.21028
2.73795
2.35232
2.03613
1.765
1.53042
1.33447
1.14296
0.919652
0.605715
51.8503
52.7852
54.9657
58.4878
63.5273
70.4104
79.5823
91.5376
106.673
124.835
143.658
156.928
154.295
134.306
108.458
85.7183
66.9659
51.6651
39.5048
30.3564
24.3095
19.0561
14.159
10.6224
8.23883
6.5031
5.18941
4.20163
3.45612
2.88135
2.42994
2.07023
1.78157
1.54066
1.3539
1.2204
1.13382
1.10212
1.08176
0.91186
49.1801
50.0141
51.944
55.0998
59.738
66.3365
75.646
88.7897
107.44
133.996
164.119
194.413
195.251
161.241
122.817
94.2367
70.4183
52.0539
38.3343
28.5179
19.2996
16.5916
11.2292
7.24022
4.61802
2.76902
1.45944
0.545116
-0.100824
-0.558713
-0.874812
-1.07712
-1.18843
-1.23215
-1.19726
-1.06998
-0.827612
-0.431634
0.139613
0.813602
45.7843
46.4478
47.9677
50.4846
54.2995
59.9818
68.509
81.5614
102.098
138.688
196.54
262.063
274.729
183.915
126.045
91.4919
61.3217
40.8821
27.2842
18.8586
15.5319
6.00912
4.236
2.7669
1.15291
-0.214336
-1.2186
-1.98099
-2.59364
-3.08338
-3.46156
-3.71747
-3.85861
-3.89193
-3.78824
-3.50151
-2.97326
-2.09226
-0.672578
1.55371
41.8394
42.2626
43.1988
44.7641
47.2246
51.0844
57.2663
67.5576
85.6353
130.716
209.761
374.306
504.834
167.296
148.198
92.9663
49.7563
26.3974
13.1381
4.9089
-7.18394
-36.4478
-32.4209
-29.3822
-28.0161
-26.8239
-25.7128
-24.7579
-23.8875
-23.0052
-22.0518
-21.0102
-19.8398
-18.5133
-17.019
-15.3348
-13.3984
-11.0427
-7.83492
-2.6163
37.5899
37.7213
37.9365
38.2896
38.9156
40.0431
42.0836
45.8209
52.8126
85.9716
154.187
374.523
1775.4
267.644
70.6776
16.8696
-1.09784
-9.09593
-14.4531
-15.4658
0.329001
-3.83906
-9.48817
-12.3898
-13.6786
-14.3337
-14.6683
-14.7379
-14.5627
-14.1738
-13.6157
-12.8708
-11.9646
-10.9104
-9.7007
-8.30861
-6.65483
-4.59793
-2.0409
33.366
33.1758
32.614
31.6483
30.2388
28.2606
25.4426
21.1857
14.0382
16.5758
6.71837
-116.081
-832.607
-866.795
-233.8
-72.8672
-39.3494
-28.6298
-23.1154
-17.9459
-12.202
-21.0195
-17.6692
-14.1021
-11.9002
-10.3287
-9.08818
-8.11368
-7.33165
-6.66665
-6.06683
-5.4922
-4.93529
-4.38206
-3.81949
-3.23714
-2.6285
-1.99027
-1.37656
-1.10066
29.5056
29.0073
27.7168
25.5237
22.2496
17.5124
10.616
0.291264
-15.9031
-34.3607
-89.6763
-200.892
-365.887
-383.613
-236.436
-129.018
-77.6867
-51.2338
-35.8805
-25.9358
-20.2944
-19.2979
-12.7776
-7.57571
-4.98513
-3.66125
-2.7857
-2.15266
-1.69907
-1.36276
-1.09347
-0.866318
-0.672397
-0.49967
-0.346968
-0.217485
-0.121518
-0.0858862
-0.18907
-0.65404
26.3231
25.5683
23.682
20.5074
15.7899
9.032
-0.588543
-14.3961
-34.6162
-65.1884
-107.468
-160.263
-207.396
-212.974
-172.132
-121.585
-84.2964
-60.2841
-44.1197
-32.6029
-24.722
-20.2553
-14.949
-10.6586
-7.9002
-6.04076
-4.59936
-3.43186
-2.49962
-1.76114
-1.17425
-0.708685
-0.351335
-0.0872129
0.0892509
0.177316
0.167878
0.0406353
-0.246788
-0.774865
24.0729
23.1365
20.8372
17.0011
11.3496
3.37256
-7.68305
-22.8183
-43.2651
-70.2379
-103.543
-139.272
-167.256
-172.718
-151.589
-118.03
-87.6929
-65.2834
-49.0132
-36.778
-27.591
-20.8578
-15.392
-10.9829
-7.67083
-5.24592
-3.43561
-2.06506
-1.03458
-0.271136
0.285489
0.679572
0.939594
1.08399
1.12262
1.05717
0.880711
0.577089
0.116984
-0.562872
22.9191
21.8852
19.3767
15.214
9.11543
0.587502
-11.0411
-26.5393
-46.6044
-71.4257
-99.7359
-127.573
-147.939
-152.885
-139.611
-114.931
-89.0918
-67.8076
-51.5053
-38.9396
-29.2209
-21.8292
-16.1822
-11.7737
-8.40254
-5.89722
-4.03381
-2.62366
-1.54773
-0.731018
-0.119635
0.325959
0.631759
0.813507
0.878868
0.828865
0.657612
0.353659
-0.0979564
-0.722531
52.5879
53.4469
55.4499
58.6232
62.9955
68.6431
75.6084
83.7688
92.7019
101.497
108.581
111.789
109.143
100.322
87.4368
73.6231
60.8083
49.5109
39.7711
31.5919
24.9224
19.6072
15.4428
12.2141
9.71769
7.77422
6.25528
5.07313
4.15704
3.44424
2.88372
2.43722
2.07815
1.79007
1.54582
1.33583
1.16081
0.982834
0.782669
0.523314
51.7018
52.5486
54.5022
57.6055
61.9242
67.5899
74.7325
83.3624
93.2219
103.525
112.576
117.434
114.581
103.532
88.0711
72.7414
59.2016
47.5129
37.6215
29.4931
22.9763
17.8633
13.9018
10.8912
8.58768
6.78154
5.355
4.23322
3.35584
2.66701
2.11945
1.68082
1.32589
1.0828
0.873434
0.692344
0.624012
0.55528
0.462684
0.346624
49.9724
50.7727
52.6003
55.5239
59.6699
65.2686
72.6181
82.0142
93.6156
107.085
120.486
129.027
125.503
109.142
88.7651
71.008
56.2254
43.8459
33.6919
25.6336
19.3254
14.7564
11.0503
8.26013
6.16839
4.56636
3.35342
2.43909
1.75163
1.22809
0.83138
0.537876
0.335815
0.166819
0.0841456
0.0918906
0.0964889
0.192583
0.341635
0.436126
47.4551
48.1619
49.7533
52.3258
56.0678
61.3225
68.608
78.6583
92.5006
111.42
136.217
157.619
156.372
129.105
98.9567
76.4417
57.5975
42.835
31.489
22.9763
11.6206
8.87951
5.9646
3.45188
1.35386
-0.27334
-1.47661
-2.34063
-2.96538
-3.40402
-3.68755
-3.83527
-3.8691
-3.81091
-3.63487
-3.32645
-2.8845
-2.2566
-1.41524
-0.351714
44.2633
44.8141
46.0328
48.0198
50.9972
55.3774
61.8355
71.5008
86.3107
115.507
156.818
202.88
207.345
136.182
94.4033
68.2221
44.9726
28.9946
18.0891
11.2574
9.29566
-2.77595
-3.57109
-5.26166
-6.76588
-7.89588
-8.65762
-9.18069
-9.54412
-9.76987
-9.86337
-9.82323
-9.62227
-9.24543
-8.71474
-7.96707
-6.9555
-5.57662
-3.65125
-0.887094
40.5702
40.9031
41.6007
42.7402
44.5168
47.2836
51.6682
58.8564
71.2237
106.135
166.696
290.591
384.733
101.492
108.547
54.7498
19.6378
1.76249
-8.10952
-13.5142
-12.9715
-28.1124
-29.4605
-32.6526
-33.7746
-33.6325
-33.104
-32.4128
-31.5705
-30.5729
-29.4192
-28.0887
-26.6041
-24.957
-23.0802
-20.9465
-18.491
-15.5124
-11.4579
-4.7233
36.6143
36.6821
36.7426
36.8201
37.0052
37.4395
38.3637
40.2265
43.9146
68.8912
121.037
301.682
1583.26
253.992
-17.1396
-59.8968
-68.946
-70.5177
-68.9211
-63.7706
-36.461
-36.2136
-38.4791
-38.7236
-37.8217
-36.6353
-35.3604
-33.9784
-32.4722
-30.836
-29.0848
-27.1908
-25.1218
-22.9111
-20.5285
-17.9325
-14.977
-11.2867
-5.80283
32.6917
32.4749
31.8522
30.7823
29.2221
27.045
23.9869
19.5123
12.4528
13.2475
3.96747
-92.6902
-664.92
-659.029
-187.404
-75.1179
-51.217
-42.0199
-36.3683
-30.8816
-27.7824
-30.5993
-27.2276
-23.5994
-21.198
-19.3541
-17.8459
-16.5897
-15.4912
-14.4789
-13.5048
-12.5421
-11.5796
-10.5639
-9.51259
-8.41635
-7.25202
-5.97503
-4.51054
-2.7452
29.105
28.6235
27.3617
25.2276
22.074
17.5802
11.1773
1.88246
-12.0339
-27.8868
-72.4075
-157.99
-281.667
-294.819
-186.358
-107.057
-68.3695
-47.4255
-34.6381
-26.2337
-23.6637
-19.0534
-15.2632
-12.115
-10.1391
-8.7993
-7.75747
-6.91112
-6.20907
-5.60556
-5.06487
-4.56443
-4.09731
-3.64589
-3.2076
-2.78247
-2.37152
-1.98059
-1.63047
-1.38952
26.1615
25.4499
23.668
20.6837
16.294
10.0946
1.43261
-10.7057
-27.9608
-53.2187
-87.1742
-128.119
-163.491
-168.403
-138.736
-100.895
-72.1288
-52.8747
-39.364
-29.4176
-22.3624
-18.5038
-14.8455
-11.746
-9.42496
-7.66752
-6.2628
-5.11676
-4.18304
-3.42087
-2.79514
-2.27924
-1.85938
-1.51866
-1.25021
-1.05202
-0.929842
-0.89462
-0.964678
-1.15036
24.0847
23.21
21.0662
17.5092
12.3173
5.07892
-4.80175
-18.089
-35.6703
-58.3383
-85.7026
-114.412
-136.631
-141.103
-125.189
-99.6439
-75.7972
-57.556
-43.8769
-33.3314
-25.2484
-19.3109
-14.7144
-11.0572
-8.24505
-6.12361
-4.5104
-3.27242
-2.32237
-1.59681
-1.04601
-0.633406
-0.334378
-0.132293
-0.0187939
0.00809675
-0.0577874
-0.228017
-0.515707
-0.921167
23.0224
22.0582
19.731
15.8903
10.3111
2.59707
-7.78201
-21.4093
-38.7645
-59.866
-83.5348
-106.471
-123.11
-127.335
-117.193
-97.8982
-77.2841
-59.8322
-46.0889
-35.2549
-26.7287
-20.1791
-15.2073
-11.38
-8.44597
-6.22233
-4.53585
-3.24509
-2.25274
-1.49256
-0.91627
-0.487909
-0.182971
0.0135099
0.109564
0.107196
0.00161638
-0.216154
-0.550154
-0.978951
50.5565
51.2686
52.9094
55.4847
58.9978
63.4784
68.9133
75.1426
81.7579
87.9776
92.5665
93.973
90.9258
83.3916
73.0043
61.9979
51.7325
42.5629
34.5141
27.6168
21.8769
17.234
13.5876
10.8023
8.65559
6.95916
5.61107
4.55009
3.7208
3.07087
2.55751
2.14867
1.82118
1.55731
1.338
1.15232
0.990302
0.827148
0.641893
0.417896
49.7186
50.4183
52.0097
54.5099
57.95
62.3989
67.9006
74.3788
81.5189
88.5867
94.203
96.2672
92.7797
83.7362
71.8793
60.1794
49.7203
40.4956
32.4796
25.7013
20.1095
15.6078
12.1393
9.60581
7.69162
6.17873
4.97486
4.02049
3.26125
2.6522
2.16008
1.76178
1.44145
1.19044
0.987831
0.827883
0.712113
0.60821
0.48953
0.329473
48.0856
48.7413
50.2118
52.5299
55.7737
60.078
65.5951
72.4245
80.4914
89.2869
97.2679
101.039
96.2659
83.2489
68.3275
55.6299
44.943
35.5717
27.5089
20.7993
15.3053
11.0592
8.45132
6.61288
5.03848
3.7501
2.78469
2.0783
1.55427
1.16017
0.864835
0.647904
0.495242
0.389527
0.334124
0.328602
0.358581
0.425965
0.490906
0.444874
45.7191
46.286
47.5376
49.523
52.3615
56.2643
61.5171
68.4673
77.4962
88.8857
100.698
108.38
100.986
80.0542
61.3332
48.4196
37.8948
28.8991
21.3535
14.9016
8.31072
2.12672
2.32142
2.75632
2.12859
1.21461
0.430606
-0.192818
-0.694831
-1.09127
-1.38761
-1.5897
-1.7039
-1.73782
-1.68332
-1.53012
-1.2737
-0.899373
-0.426434
0.0465031
42.731
43.1588
44.0713
45.5296
47.6609
50.7282
55.097
61.3131
70.1374
90.3237
111.703
131.859
124.222
81.2756
56.3157
43.0115
29.0903
18.5663
11.0578
5.55496
0.00581263
-14.0636
-11.2512
-8.27117
-6.94512
-6.27074
-5.80699
-5.47857
-5.2576
-5.10027
-4.96499
-4.81717
-4.63126
-4.38661
-4.05044
-3.58769
-2.96302
-2.12046
-1.02232
0.220759
39.2892
39.5252
39.9776
40.6888
41.7759
43.4389
45.9973
49.984
56.2778
78.3183
105.86
149.206
165.719
27.6476
19.0028
2.86212
-5.66636
-9.85369
-13.2527
-15.9469
-22.4573
-15.2049
-16.1486
-17.665
-18.0433
-17.8795
-17.5645
-17.1996
-16.7943
-16.3419
-15.828
-15.217
-14.5125
-13.6965
-12.7074
-11.5097
-10.0537
-8.21793
-5.73972
-2.03485
35.6217
35.6235
35.5236
35.3231
35.0649
34.7993
34.582
34.4817
34.5592
48.728
60.3673
131.109
175.045
-677.593
-124.983
-88.8191
-66.1855
-61.7956
-58.3333
-55.4922
-68.3587
-41.5514
-39.1706
-36.8381
-34.7734
-32.7623
-30.9158
-29.233
-27.6431
-26.0921
-24.5435
-22.9721
-21.3559
-19.6487
-17.842
-15.9229
-13.8644
-11.556
-8.73703
-4.66607
32.008
31.7505
31.0638
29.8899
28.181
25.8028
22.485
17.72
10.5261
8.74534
-13.5284
-81.9165
-306.082
-258.164
-105.017
-56.4384
-36.2393
-27.7369
-22.902
-18.5917
-10.6573
4.87948
1.5168
-2.27146
-3.81512
-4.46472
-4.82441
-5.01016
-5.05205
-4.98269
-4.82981
-4.61741
-4.34362
-3.99776
-3.58333
-3.11069
-2.57103
-1.93607
-1.19227
-0.491658
28.6707
28.2134
26.9821
24.9093
21.8798
17.6298
11.6983
3.29859
-9.0332
-28.2893
-52.7006
-107.507
-177.44
-187.96
-128.45
-80.6462
-54.36
-38.6561
-28.5257
-20.9954
-10.9106
-1.9418
-2.90727
-4.26083
-4.16437
-3.60381
-3.07405
-2.62732
-2.24413
-1.91712
-1.63978
-1.40088
-1.19453
-1.01351
-0.839754
-0.67229
-0.516724
-0.38179
-0.318405
-0.5072
25.973
25.3058
23.6275
20.8374
16.782
11.1488
3.45014
-7.03428
-21.3347
-40.7827
-65.9791
-94.3559
-117.739
-121.901
-104.075
-79.2192
-58.7677
-44.1182
-33.2619
-24.6115
-17.2744
-12.2209
-9.34437
-7.24267
-5.35615
-3.79352
-2.60322
-1.70981
-1.03354
-0.522939
-0.142587
0.134703
0.325637
0.446154
0.510651
0.520755
0.469765
0.339947
0.0871651
-0.407884
24.0672
23.2552
21.2689
17.9968
13.2735
6.78667
-1.90152
-13.3154
-27.9783
-46.1649
-67.2317
-88.6775
-104.773
-108.571
-98.3475
-80.6844
-63.2826
-49.1784
-38.1008
-29.1862
-21.9408
-16.2755
-11.9033
-8.65137
-6.19066
-4.30476
-2.86945
-1.78325
-0.963781
-0.350753
0.0989153
0.417323
0.627445
0.745559
0.781697
0.739135
0.612138
0.385067
0.028708
-0.518598
23.0929
22.2003
20.0582
16.5459
11.497
4.61198
-4.49699
-16.2202
-30.8091
-48.0882
-66.9574
-84.8495
-97.657
-101.209
-94.2878
-80.3876
-64.9229
-51.2465
-40.0522
-30.9385
-23.5278
-17.6306
-13.0647
-9.59965
-6.94909
-4.89315
-3.30007
-2.07595
-1.14345
-0.44097
0.0777012
0.446867
0.691607
0.82876
0.868221
0.814343
0.662981
0.402603
0.0116062
-0.553904
48.6577
49.2274
50.5258
52.544
55.2582
58.6597
62.6911
67.1712
71.7238
75.7104
78.2222
78.2393
75.0558
68.8328
60.73
52.2137
44.1808
36.8888
30.3787
24.709
19.9286
16.0319
12.9557
10.5706
8.68809
7.16438
5.92778
4.93347
4.13787
3.49848
2.98036
2.5565
2.2059
1.91145
1.65799
1.43289
1.22201
1.00545
0.759372
0.45635
47.8641
48.4216
49.6705
51.613
54.2372
57.5666
61.5758
66.1287
70.8916
75.2262
78.1084
78.2407
74.6321
67.5623
58.7723
50.0555
42.1052
34.934
28.5601
23.071
18.503
14.8407
12.0355
9.90274
8.20774
6.82137
5.69102
4.77322
4.02318
3.40354
2.88739
2.45488
2.09109
1.78406
1.52277
1.29782
1.09815
0.904175
0.684792
0.399888
46.3209
46.8365
47.9672
49.727
52.1412
55.2675
59.1441
63.728
68.7915
73.7432
77.3555
77.6932
72.9365
63.7821
53.6895
44.9662
37.4476
30.582
24.4542
19.2533
15.0262
11.8426
9.73772
8.08027
6.57058
5.27464
4.25054
3.46064
2.84486
2.35849
1.97318
1.66784
1.42644
1.23625
1.08882
0.978659
0.89465
0.816789
0.704584
0.466507
44.0935
44.5282
45.4558
46.8979
48.9167
51.6072
55.0805
59.4138
64.5639
70.1341
74.77
75.5124
68.7175