/*--------------------------------*- C++ -*----------------------------------*\
| =========                 |                                                 |
| \\      /  F ield         | OpenFOAM: The Open Source CFD Toolbox           |
|  \\    /   O peration     | Version:  2306                                  |
|   \\  /    A nd           | Website:  www.openfoam.com                      |
|    \\/     M anipulation  |                                                 |
\*---------------------------------------------------------------------------*/
FoamFile
{
    version     2.0;
    format      ascii;
    arch        "LSB;label=32;scalar=64";
    class       surfaceScalarField;
    location    "0.15";
    object      phi;
}
// * * * * * * * * * * * * * * * * * * * * * * * * * * * * * * * * * * * * * //

dimensions      [0 3 -1 0 0 0 0];

oriented        oriented;

internalField   nonuniform List<scalar> 
338621
(
24.995
0.00223573
0.00151223
24.9872
0.00470728
0.00310059
24.9749
0.00748986
0.00489659
24.9576
0.0104674
0.0070379
24.9342
0.0137629
0.00982869
24.9012
0.0197919
0.013426
24.8543
0.0293398
0.0179251
24.791
0.0400134
0.0236148
24.7288
0.0318907
0.0307001
24.6854
0.00477268
0.0390626
24.6567
-0.0195509
0.0485433
24.5824
0.0159608
0.0586689
24.6105
-0.0968194
0.0690982
24.7401
-0.208126
0.0788269
24.7808
-0.127583
0.0871284
24.8121
-0.124533
0.0935499
24.84
-0.125793
0.0981722
24.8625
-0.123978
0.101625
24.8815
-0.123074
0.104185
24.9079
-0.132586
0.106292
24.9378
-0.137857
0.107963
24.9612
-0.132964
0.109577
24.9801
-0.130053
0.111177
24.9968
-0.129271
0.112571
25.0125
-0.129558
0.113863
25.0277
-0.13024
0.11502
25.0433
-0.131533
0.115903
25.0596
-0.132711
0.116419
25.0767
-0.133716
0.116571
25.0951
-0.134556
0.116234
25.1145
-0.134709
0.1153
25.1347
-0.133916
0.113659
25.1552
-0.131866
0.111358
25.1753
-0.128376
0.108337
25.1941
-0.12337
0.104543
25.2112
-0.117164
0.100029
25.2258
-0.10938
0.094808
25.2372
-0.10043
0.0890397
25.245
-0.0906421
0.0827794
-0.0806582
0.0760086
24.9949
0.0044563
0.00148022
24.9871
0.00956415
0.00299722
24.9744
0.0155283
0.00475905
24.957
0.0212166
0.00686596
24.9335
0.0277783
0.00961591
24.9038
0.0366925
0.013087
24.8678
0.0479559
0.0176148
24.8218
0.0629936
0.0233712
24.7569
0.066458
0.030612
24.682
0.0406472
0.0393631
24.6389
-0.0257379
0.0495941
24.6253
-0.0308081
0.0605615
24.6634
-0.207347
0.0725994
24.7465
-0.374798
0.0836815
24.8257
-0.299398
0.0928156
24.8929
-0.291151
0.0996459
24.9441
-0.281245
0.10444
24.9854
-0.27299
0.107891
25.0296
-0.277739
0.110488
25.0631
-0.278558
0.112516
25.0834
-0.272444
0.114312
25.0984
-0.26402
0.115983
25.1098
-0.259087
0.117672
25.12
-0.258637
0.119092
25.1296
-0.259487
0.120305
25.1396
-0.261462
0.121288
25.1498
-0.26382
0.122054
25.1616
-0.266998
0.122481
25.1753
-0.269958
0.122518
25.1905
-0.271847
0.122063
25.2074
-0.272559
0.121016
25.2252
-0.271006
0.119293
25.2439
-0.267417
0.116853
25.2624
-0.260612
0.113646
25.2801
-0.250658
0.109654
25.2958
-0.237847
0.104939
25.3089
-0.221958
0.0994808
25.3188
-0.203747
0.0934549
25.3254
-0.184118
0.0868899
-0.163114
0.0798165
24.9953
0.00635629
0.00140175
24.9875
0.0145392
0.00283273
24.9755
0.0231983
0.00446426
24.9574
0.0329171
0.00653212
24.9328
0.0433089
0.00916782
24.9014
0.0557739
0.0125636
24.8611
0.0713152
0.0171008
24.8116
0.0897985
0.0229491
24.7424
0.105401
0.0305624
24.6443
0.0988109
0.0402201
24.5675
0.00513224
0.051986
-0.00631363
0.00553714
-0.00512188
24.664
-0.0388368
0.0657249
-0.0585585
-0.0377469
-0.0578352
24.5559
-0.0110161
0.0790336
-0.0952537
0.0216821
-0.0937642
24.7278
-0.181797
0.0920666
-0.123488
-0.211646
-0.121758
24.82
-0.128281
0.101973
-0.120848
-0.126034
-0.118373
24.8797
-0.11718
0.108971
-0.11514
-0.114488
-0.112778
24.9323
-0.113063
0.113646
-0.11314
-0.110907
-0.11032
24.9966
-0.115291
0.116881
-0.114111
-0.112966
-0.111829
25.0382
-0.111476
0.119278
-0.110006
-0.109223
-0.107927
25.0626
-0.107626
0.121141
-0.10662
-0.105438
-0.104525
25.0804
-0.4133
0.123031
25.0948
-0.403355
0.124836
25.1049
-0.395701
0.126518
25.1139
-0.395591
0.127966
25.1228
-0.397614
0.129199
25.1319
-0.40071
0.130116
25.1418
-0.404372
0.130671
25.1536
-0.409635
0.130835
25.167
-0.413941
0.13056
25.1833
-0.417905
0.129784
25.2016
-0.4193
0.128422
25.2221
-0.417904
0.126395
25.2437
-0.412585
0.123589
25.2658
-0.40286
0.120093
25.287
-0.387582
0.115727
25.3063
-0.367745
0.110619
25.3229
-0.343269
0.104732
25.3357
-0.314793
0.098229
25.3441
-0.283746
0.0911545
-0.251944
0.0835693
24.9956
0.0085525
0.00128105
24.9887
0.0188227
0.0025873
24.9769
0.0310687
0.00405673
24.9599
0.0439987
0.00599637
24.9352
0.0597382
0.00843905
24.9005
0.078916
0.0116791
24.8546
0.101298
0.0160578
24.7961
0.126617
0.0218767
24.7293
0.142686
0.0297261
6.14102
0.0365212
0.0402205
0.0538059
0.0379702
0.0541362
6.16318
6.14018
6.16128
6.12345
0.0168585
0.00585333
-6.11033
6.09819
-0.0343604
0.0076596
-6.10209
6.12359
-0.0421265
0.00958467
-6.11578
6.14266
-0.220354
0.0116621
-6.16127
6.17547
-0.155786
0.0132973
-6.18862
6.19923
-0.142142
0.0143566
-6.21042
6.22461
-0.142335
0.0150793
-6.23643
6.24351
-0.137935
0.0155581
-6.24916
6.25421
-0.132398
0.0158666
-6.25842
6.26218
-0.127531
0.0161338
25.0875
-0.14104
0.134236
-0.142124
-0.139186
-0.141504
-6.26545
-6.27011
-6.26571
-6.27004
25.0948
-0.548377
0.137641
25.0987
-0.537881
0.138294
25.1031
-0.538445
0.13837
25.1066
-0.539849
0.138709
25.1101
-0.5432
0.139022
25.1155
-0.548874
0.139096
25.1227
-0.555662
0.138841
25.1326
-0.56207
0.138175
25.1459
-0.568233
0.137008
25.1632
-0.571827
0.135243
25.1842
-0.571643
0.132804
25.2082
-0.566248
0.129588
25.2349
-0.555209
0.12572
25.2627
-0.53646
0.121003
25.2899
-0.510527
0.115589
25.3149
-0.477679
0.109444
25.3359
-0.438513
0.10268
25.3528
-0.395957
0.0953945
-0.351662
0.0875872
24.9972
0.00908948
0.00111865
24.9912
0.0226182
0.00225705
24.9814
0.0374502
0.00353223
24.9658
0.0544067
0.0052381
24.9427
0.0754847
0.0073928
24.9091
0.102422
0.0102704
24.8588
0.137534
0.014164
24.7841
0.181879
0.0195232
6.17079
0.231735
0.0268168
6.16349
6.17057
6.16349
6.15466
0.0486629
0.00399311
6.12921
0.00555618
-6.15719
0.0201017
0.0117478
0.0115885
0.0201947
-0.0412111
-6.07639
6.04217
0.00751018
-0.00219261
0.00406926
0.00371817
-0.00203746
0.0231191
-6.04172
6.06
0.00986092
0.02911
-0.0402098
-0.0404214
-0.0191475
0.0424695
-6.11234
6.13755
0.0127201
-0.0519713
-0.066718
-0.104624
-0.0524461
0.237781
-6.16992
6.18188
0.0146006
-0.0506698
-0.0546433
-0.0538676
-0.0511762
0.183786
-6.19356
6.20697
0.0157428
-0.0510139
-0.0503911
-0.0501794
-0.0512125
0.173643
-6.22052
6.23227
0.0164708
-0.0490305
-0.0492241
-0.0489501
-0.0493667
0.16835
-6.2418
6.24889
0.0169294
-0.046124
-0.0464283
-0.0459775
-0.0466163
0.161107
-6.25506
6.25939
0.0172734
-0.0434194
-0.0440655
-0.0435165
-0.0439768
0.153356
-6.26317
6.26494
0.0176246
-0.0411862
-0.0420118
-0.0414616
-0.0417144
0.146957
-6.26764
6.26879
-0.160458
0.0182649
25.0285
-0.665549
0.148413
-6.2677
-6.26124
-6.26864
-6.2622
25.0031
-0.660761
0.148196
24.977
-0.657384
0.145062
24.9514
-0.655713
0.141454
24.9283
-0.657514
0.137447
24.9083
-0.66204
0.133104
24.8926
-0.668564
0.128583
24.8831
-0.676507
0.124005
24.8799
-0.684518
0.119402
24.8846
-0.691296
0.114767
24.8979
-0.694933
0.110061
24.9197
-0.693293
0.105205
24.949
-0.684815
0.100285
24.9854
-0.667986
0.095157
25.0266
-0.641642
0.0898606
25.0704
-0.60583
0.0843727
25.1142
-0.561024
0.0786927
25.1545
-0.509034
0.0728354
-0.452954
0.0666801
24.9998
0.00766539
0.000917996
24.9964
0.024201
0.00185446
24.9888
0.0422182
0.0029051
24.9769
0.0620947
0.00424127
24.9591
0.0873318
0.00599569
24.9318
0.121524
0.00828929
24.8883
0.169748
0.0113362
24.8154
0.239301
0.0155537
6.17017
0.346293
0.021178
6.16975
6.17014
6.16959
-0.0646964
6.14444
0.0872717
0.00314402
-0.0195245
-1.52741
1.52225
0.0241019
0.000584663
-0.0193221
-1.50404
1.49194
0.0307055
0.000714205
-1.46853
0.0522483
1.47844
-0.0632806
0.001104
-1.52984
0.0845424
1.53844
-0.0945538
0.00140533
-1.5364
0.0617834
-0.0661433
0.00228494
1.53847
-1.54772
0.0600849
-0.0650469
0.0024455
1.55024
0.0576119
-1.5559
1.55733
-0.0616136
0.00256656
0.0533886
-1.5602
1.56072
-0.0565668
0.00266289
0.0502336
-1.5612
1.56121
-0.0529746
0.00273379
0.047421
-1.56027
1.55977
-0.049693
0.00277349
-1.55304
0.176416
6.15219
-0.170907
0.0210123
-1.53597
-1.5534
-1.53631
23.809
-0.778331
0.0771421
-6.09235
-5.79409
-6.09392
-5.79305
23.8363
-0.760481
0.0724925
23.8616
-0.751209
0.0684781
23.8873
-0.746249
0.0648226
23.9137
-0.745236
0.0613406
23.9413
-0.747525
0.0578462
23.971
-0.752472
0.0541846
24.0034
-0.75912
0.0502688
24.039
-0.766242
0.0460959
24.0782
-0.772238
0.0417378
24.1212
-0.775264
0.0373156
24.1686
-0.773572
0.0329515
24.2201
-0.765218
0.0288647
24.2757
-0.748664
0.0251232
24.3352
-0.723047
0.0218385
24.3979
-0.68756
0.0190625
24.4623
-0.642207
0.0167938
24.5253
-0.587027
0.0149997
-0.520549
0.0136927
25.003
0.00378386
0.000689872
25.0035
0.0223174
0.00138882
25.0006
0.0429923
0.00217492
24.9948
0.0647895
0.00310182
24.9859
0.0919641
0.00429414
24.9722
0.129428
0.00583983
24.9522
0.181966
0.00775133
24.9207
0.260662
0.0101849
6.2127
0.387302
0.0130344
6.22082
6.21244
6.22065
-0.105738
6.19717
0.119417
0.00185271
-0.0392796
-1.54184
1.53567
0.0451465
0.000307522
-0.0820789
-1.50619
1.48772
0.100377
0.000170141
0.00439586
-0.0746898
0.0748763
-0.00460954
2.7086e-05
-0.0214005
0.000449796
0.0209118
2.66404e-06
3.62443e-05
-0.211462
0.0112893
-0.0221436
-0.00248891
0.224806
-1.20283
0.0637096
-0.0812296
-0.00216726
1.22252
0.0578989
-1.26439
1.27352
-0.0644034
-0.00262006
0.0561898
-1.30169
1.31104
-0.0628174
-0.00272648
0.0530889
-1.33535
1.34295
-0.0580107
-0.00268114
0.0511023
-1.36274
1.36989
-0.0557623
-0.00248878
-1.40721
0.205286
5.84725
-0.222069
-0.0193537
-1.49998
-1.40464
-1.49927
24.2092
-0.696582
-0.124317
-5.90055
-6.18533
-5.89769
-6.18308
24.2422
-0.675088
-0.118362
24.2715
-0.66894
-0.111496
24.2983
-0.667598
-0.105481
24.3226
-0.668877
-0.100605
24.3443
-0.672556
-0.0967266
24.3635
-0.677867
-0.0938059
24.3796
-0.683602
-0.0916397
24.3921
-0.688647
-0.0900855
24.4005
-0.69171
-0.0889244
24.4047
-0.691486
-0.0879528
24.4048
-0.686814
-0.0868841
24.4017
-0.676486
-0.0856056
24.3965
-0.659577
-0.0838623
24.3904
-0.635404
-0.0816052
24.3856
-0.603924
-0.0787812
24.3837
-0.564911
-0.0753571
24.3866
-0.518602
-0.0713836
-0.465249
-0.0668903
25.0047
-0.00110789
0.000462902
25.01
0.0161735
0.000915161
25.0148
0.0367234
0.00139141
25.0187
0.0589594
0.00192919
25.0205
0.0876192
0.00251007
25.0255
0.121247
0.00319464
25.0374
0.16612
0.00383783
25.0632
0.23057
0.00425598
6.27402
0.331946
0.00409329
6.28182
6.2744
6.28421
-0.111549
6.28171
0.103428
0.000431939
-0.0446294
-1.57783
1.57952
0.042928
1.77097e-05
-0.0842883
-1.59809
1.61315
-0.000272903
0.0695002
-0.0257205
-1.71374
1.75275
-0.00195719
0.0561463
-0.0208322
-0.0258
-0.0208388
0.10086
-1.71338
1.68367
-0.00138186
-0.0697629
0.103131
-1.60955
-0.00190424
1.59895
-0.0906173
0.0786803
-1.58456
-0.00211203
1.58169
-0.0736994
0.0573231
-1.57725
1.57639
-0.054213
-0.00225487
0.0578794
-1.57491
1.57321
-0.0538456
-0.00232865
0.0522211
-1.57309
1.57253
-0.0493036
-0.00235372
0.0487181
-1.5718
1.57136
-0.045935
-0.00234698
-1.56919
0.182553
6.27155
-0.160296
-0.0181827
-1.56867
-1.56895
-1.56881
25.0932
-0.551449
-0.136559
-6.27522
-6.27462
-6.27679
-6.27509
25.0913
-0.537665
-0.135498
25.0844
-0.528995
-0.133023
25.075
-0.527643
-0.130513
25.0638
-0.529435
-0.128228
25.0504
-0.533092
-0.126125
25.0344
-0.537542
-0.124309
25.0151
-0.541594
-0.122692
24.9928
-0.54505
-0.121236
24.967
-0.546169
-0.11981
24.938
-0.544158
-0.118305
24.9064
-0.538858
-0.116392
24.8729
-0.528906
-0.114077
24.8382
-0.513731
-0.111087
24.8041
-0.493891
-0.107424
24.7718
-0.468578
-0.103029
24.7429
-0.438141
-0.0978934
24.7193
-0.402905
-0.092094
-0.364226
-0.0856669
25.0057
-0.00607184
0.000215083
25.0141
0.00734588
0.000437023
25.027
0.0231363
0.000639864
25.0382
0.046892
0.000786925
25.0535
0.0714564
0.00083797
25.0769
0.0970601
0.000694728
25.1147
0.127966
0.000195462
25.1779
0.168335
-0.00110869
6.32033
0.230938
-0.00370462
6.31848
6.32471
6.31899
-0.0886797
6.33642
0.073345
-0.00076878
-0.0332773
6.413
0.0882104
-0.00169049
-0.0344957
-0.0334763
-0.0341752
-6.3641
-0.0335575
6.51724
0.0764607
-0.00354007
-0.0263051
-0.0335233
-0.026327
-6.47044
-0.00736228
-6.54818
6.51471
-0.00531534
-0.00648844
0.0150789
-0.00770281
0.0453039
0.0455463
-6.53635
6.51433
-0.123171
-0.00956264
0.0393167
0.0362668
0.0336698
0.0550417
-6.44966
6.41206
-0.176718
-0.012041
0.0555711
0.0573804
0.0583763
0.0561082
-6.37236
6.34064
-0.173968
-0.0136697
0.0547827
0.0550706
0.0533879
0.0461255
-6.32313
6.3126
-0.155097
-0.0147794
0.045158
0.0449033
0.0442117
0.0440022
-6.30465
6.29947
-0.153782
-0.0154542
0.0437631
0.0434472
0.0432219
0.0410187
-6.29562
6.29077
-0.141074
-0.015792
0.0405358
0.0403858
0.0397922
0.0382187
-6.28692
6.2818
-0.129537
-0.0159563
0.0377845
0.037586
0.0370378
0.142303
-6.28045
6.2786
-0.124251
-0.0161946
25.0904
-0.408369
-0.130408
-6.27604
-6.27556
-6.2764
-6.27505
25.0792
-0.396717
-0.129665
25.0703
-0.39157
-0.128529
25.0607
-0.39031
-0.127697
25.0499
-0.391488
-0.127076
25.037
-0.393731
-0.126536
25.0221
-0.396557
-0.125999
25.0049
-0.399066
-0.125368
24.985
-0.400636
-0.124524
24.9628
-0.400607
-0.123341
24.9385
-0.398158
-0.121734
24.9127
-0.393492
-0.11954
24.8857
-0.385166
-0.116683
24.8591
-0.373986
-0.113194
24.8332
-0.3589
-0.109042
24.8089
-0.34008
-0.104231
24.788
-0.318401
-0.0988375
24.7717
-0.293684
-0.0929578
-0.267182
-0.0867093
25.0063
-0.0110059
5.52759e-05
25.0161
-0.0025384
8.67406e-05
25.0249
0.0142692
1.60882e-05
25.0413
0.0304889
-0.00014581
25.0679
0.045323
-0.000550346
25.1013
0.0648015
-0.00133046
25.1489
0.0829362
-0.00271248
25.2154
0.106711
-0.00515752
25.3246
0.130876
-0.00931964
25.43
0.145116
-0.0160665
-0.0611291
-0.0569186
-0.0589979
-0.057793
25.5791
0.133221
-0.0262873
-0.0609213
-0.0644678
-0.062582
-0.0682731
25.7145
0.0558834
-0.0408745
-0.0424335
-0.0285898
-0.0466202
-0.0327534
25.5938
-0.155451
-0.0586255
0.0209064
0.123902
0.019013
0.171103
25.5026
-0.236662
-0.0776257
0.0830548
0.116671
0.0984009
0.10742
25.4358
-0.246422
-0.093396
0.082319
0.147543
0.0308217
0.145813
25.3527
-0.349047
-0.104776
0.134052
0.136772
0.132216
0.133724
25.2716
-0.317469
-0.111754
0.127276
0.130734
0.124617
0.127507
25.2084
-0.326673
-0.115872
0.129956
0.126874
0.126284
0.122703
25.1672
-0.305501
-0.118243
0.119847
0.116798
0.116038
0.112283
25.1442
-0.287227
-0.119683
0.109533
0.109551
0.104504
0.106432
25.1245
-0.274339
-0.120715
0.105507
0.105165
0.10256
0.10166
25.1047
-0.266934
-0.121562
25.0905
-0.260607
-0.121835
25.0783
-0.257357
-0.12201
25.0662
-0.255931
-0.122261
25.0532
-0.256169
-0.12238
25.0396
-0.257722
-0.122369
25.024
-0.258802
-0.122158
25.0071
-0.260435
-0.121676
24.9882
-0.26094
-0.120851
24.9681
-0.260891
-0.119597
24.947
-0.259179
-0.117854
24.9245
-0.25544
-0.115566
24.9021
-0.250173
-0.11261
24.8795
-0.242239
-0.109102
24.8579
-0.232318
-0.104956
24.8384
-0.220409
-0.100229
24.8215
-0.206448
-0.0949793
24.807
-0.189956
-0.089284
-0.172615
-0.0832168
25.0066
-0.0156442
-9.26013e-05
25.0096
-0.00541484
-0.000197401
25.0172
0.0070295
-0.000431312
25.0366
0.0117199
-0.000791854
25.062
0.021249
-0.00149021
25.0914
0.0378975
-0.00269215
25.1395
0.0392155
-0.0046127
25.201
0.0525027
-0.00763839
25.2807
0.0632362
-0.012393
25.3773
0.0676301
-0.0194269
25.4852
0.0543899
-0.0293191
25.5665
0.0169486
-0.0425884
25.5452
-0.0761077
-0.0581491
25.5322
-0.14978
-0.0740217
25.4112
-0.0379246
-0.0877204
25.331
-0.170792
-0.0982198
25.2832
-0.164884
-0.105042
25.2238
-0.157914
-0.109471
25.1803
-0.149876
-0.112139
25.1487
-0.141832
-0.113841
25.1245
-0.135077
-0.115025
25.1041
-0.130602
-0.115829
25.0874
-0.127442
-0.116475
25.0728
-0.125813
-0.116943
25.0593
-0.125094
-0.117344
25.0461
-0.125331
-0.117529
25.0317
-0.125754
-0.117586
25.0169
-0.126578
-0.117434
25.0009
-0.127554
-0.116928
24.9838
-0.127715
-0.116061
24.9655
-0.127862
-0.114738
24.9461
-0.126818
-0.112909
24.9265
-0.125398
-0.110491
24.9064
-0.122556
-0.107508
24.8872
-0.119036
-0.103964
24.8687
-0.113965
-0.09985
24.8518
-0.108313
-0.0952146
24.8369
-0.101424
-0.0901286
24.8251
-0.0934748
-0.084678
-0.0857494
-0.0789531
24.9868
-0.000155404
24.9817
-0.000288669
24.9892
-0.000615761
25.0018
-0.00101229
25.0247
-0.00187119
25.0655
-0.00320093
25.1097
-0.00529552
25.1704
-0.00854947
25.2467
-0.0134948
25.3344
-0.0204862
25.4183
-0.0299327
25.4769
-0.0420523
25.4564
-0.0558968
25.3763
-0.0699473
25.4204
-0.0823913
25.3418
-0.0925089
25.276
-0.0993218
25.2216
-0.103641
25.178
-0.106345
25.1442
-0.108096
25.1185
-0.109329
25.0981
-0.110218
25.0816
-0.110923
25.0672
-0.111454
25.0541
-0.111968
25.0411
-0.112326
25.0279
-0.112537
25.0139
-0.112583
24.9986
-0.112211
24.9824
-0.1115
24.9649
-0.11036
24.9468
-0.108666
24.9278
-0.1064
24.9088
-0.103583
24.89
-0.100256
24.8724
-0.0963558
24.856
-0.0919309
24.8416
-0.0870556
24.83
-0.0818158
-0.0763055
24.9956
0.00150504
0.00283532
24.9888
0.00425689
0.00579031
24.978
0.00686533
0.00919429
24.962
0.0101114
0.0133509
24.9407
0.0131532
0.0186019
24.9113
0.0181761
0.0253834
24.8692
0.0268294
0.0340882
24.8115
0.0372287
0.0451276
24.7554
0.0292304
0.0587914
24.7183
0.00191385
0.075366
24.6925
-0.0186267
0.0941524
24.6292
0.00828031
0.114606
24.6572
-0.0933813
0.135357
24.7748
-0.192856
0.155021
24.8074
-0.116311
0.171682
24.8315
-0.11409
0.184522
24.854
-0.117473
0.193888
24.872
-0.116455
0.200751
24.8869
-0.116279
0.205865
24.9123
-0.128719
0.209859
24.9379
-0.130597
0.213046
24.958
-0.126396
0.21588
24.9746
-0.123947
0.21854
24.9895
-0.123426
0.221083
25.0035
-0.123578
0.223471
25.0176
-0.124745
0.225585
25.0322
-0.125989
0.227271
25.0477
-0.127384
0.22834
25.0645
-0.128915
0.228638
25.0828
-0.130044
0.22799
25.1021
-0.130214
0.226199
25.122
-0.129391
0.223118
25.1426
-0.127839
0.218613
25.1631
-0.12485
0.212696
25.1822
-0.119837
0.205268
25.1996
-0.113879
0.19647
25.2144
-0.106283
0.186271
25.2261
-0.0976036
0.174976
25.2345
-0.0883149
0.162643
-0.0783526
0.149201
24.9957
0.00304625
0.00276525
24.989
0.00852391
0.00564395
24.9776
0.0143193
0.0089711
24.9617
0.0202841
0.0130601
24.9399
0.0268413
0.0182534
24.9123
0.0345247
0.0250094
24.8791
0.0446558
0.0337584
24.8363
0.0592749
0.0450227
24.7732
0.0646639
0.059276
24.697
0.0415882
0.0768778
24.6532
-0.0218285
0.0974597
24.5906
0.0117025
0.12038
24.6253
-0.198867
0.143778
24.7573
-0.40645
0.165833
24.8379
-0.287443
0.183923
24.9054
-0.278795
0.197484
24.9548
-0.269027
0.207236
24.9935
-0.261114
0.214183
25.0369
-0.268357
0.219344
25.0675
-0.269945
0.22325
25.0852
-0.260409
0.226369
25.0982
-0.252547
0.229131
25.1076
-0.247559
0.231799
25.116
-0.247143
0.234385
25.1246
-0.248672
0.236818
25.1331
-0.25102
0.238971
25.1426
-0.254097
0.240711
25.1541
-0.258263
0.241859
25.1671
-0.261698
0.242219
25.1818
-0.264265
0.24158
25.1985
-0.265594
0.239741
25.2167
-0.264834
0.236527
25.235
-0.261221
0.231856
25.2533
-0.255099
0.225597
25.2712
-0.245801
0.217765
25.2867
-0.23286
0.208405
25.2999
-0.217588
0.197626
25.3101
-0.199994
0.185603
25.3164
-0.180231
0.172536
-0.160124
0.158296
24.9958
0.00462808
0.00261894
24.9892
0.0127322
0.00534724
24.978
0.0217511
0.00851722
24.9615
0.0312354
0.0124451
24.9387
0.0418343
0.0174894
24.9087
0.053507
0.0241388
24.8706
0.0675757
0.0329291
24.824
0.085035
0.0445413
24.7582
0.101983
0.0597547
24.6633
0.098237
0.0792501
24.5849
0.00576856
0.103226
-0.00414872
0.00653159
-0.00214594
24.7176
-0.0371648
0.130463
-0.0577547
-0.0352756
-0.0554118
24.5751
0.0225866
0.158498
-0.0939007
0.0255713
-0.0902498
24.7372
-0.212944
0.184918
-0.122248
-0.208825
-0.117461
24.8276
-0.126445
0.204696
-0.118894
-0.121529
-0.113382
24.8866
-0.115262
0.218527
-0.113586
-0.110167
-0.10786
24.9384
-0.111889
0.228031
-0.111089
-0.106455
-0.10537
25.0007
-0.113638
0.234501
-0.112432
-0.108181
-0.106838
25.0403
-0.109987
0.239081
-0.108827
-0.104816
-0.104284
25.0644
-0.106739
0.242362
-0.105437
-0.10247
-0.100937
25.0821
-0.399922
0.244631
25.0948
-0.387233
0.246773
25.1039
-0.379417
0.249176
25.1118
-0.37959
0.252449
25.1195
-0.38265
0.255385
25.1277
-0.387272
0.258209
25.1372
-0.393029
0.260031
25.1481
-0.399753
0.261441
25.1612
-0.406206
0.261975
25.1774
-0.412152
0.261414
25.1953
-0.414533
0.259534
25.2153
-0.414638
0.256143
25.2373
-0.410449
0.25085
25.259
-0.40102
0.244307
25.2799
-0.386689
0.23573
25.2992
-0.367039
0.225433
25.3156
-0.342742
0.213535
25.328
-0.314473
0.200223
25.3368
-0.283592
0.185754
-0.251889
0.170052
24.9967
0.00588428
0.00239525
24.9905
0.0168555
0.00489422
24.9795
0.0292203
0.00781041
24.9632
0.0423798
0.0114547
24.9401
0.0574955
0.0161942
24.907
0.0762289
0.0225321
24.8621
0.0978754
0.0311367
24.804
0.122719
0.0428427
24.7362
0.141227
0.0588278
6.14273
0.0378125
0.0805314
0.0532328
0.0384992
0.0538858
6.16297
6.14295
6.16265
-0.0116117
6.12556
0.0169417
0.0176392
-0.0153284
-6.11341
6.10145
-0.0331791
0.0232639
-0.0192834
-6.10523
6.09788
0.0198499
0.0292747
-0.0234056
-6.11305
6.1451
-0.257141
0.0354638
-0.0266211
-6.16298
6.17693
-0.154019
0.0402226
-0.028777
-6.1899
6.20068
-0.140584
0.0433365
-0.0301877
-6.21145
6.2256
-0.141239
0.0453946
-0.0310838
-6.23812
6.24504
-0.136209
0.0467042
-0.0316587
-6.25055
6.25551
-0.130815
0.0474836
-0.0320973
-6.259
6.26289
-0.126615
0.048035
25.0916
-0.138347
0.266819
-0.138519
-0.138001
-0.136565
-6.26663
-6.2705
-6.2661
-6.26987
25.098
-0.523664
0.267462
25.1019
-0.514318
0.269258
25.1055
-0.518182
0.273216
25.1084
-0.523787
0.276957
25.1109
-0.531426
0.280661
25.1152
-0.541528
0.283243
25.1214
-0.55234
0.285197
25.1303
-0.56292
0.286004
25.1422
-0.572485
0.28542
25.1583
-0.578623
0.283231
25.1781
-0.58086
0.27928
25.201
-0.577006
0.273192
25.2267
-0.566695
0.265736
25.2536
-0.548669
0.256089
25.2804
-0.523051
0.244772
25.3048
-0.489434
0.231758
25.3256
-0.450009
0.217335
25.3425
-0.406788
0.201712
-0.361811
0.184772
24.9984
0.00555131
0.0020947
24.9933
0.0200941
0.00427929
24.9837
0.0356566
0.00683154
24.969
0.0525386
0.0100363
24.9467
0.073181
0.014237
24.9143
0.0995476
0.019655
24.8652
0.133732
0.0277302
24.792
0.17713
0.0385912
6.17321
0.226814
0.0539951
6.16611
6.17382
6.16644
-0.00793142
6.1581
0.0487916
0.0120874
-0.0111218
6.13245
0.0170204
-6.16106
0.0199486
0.0112525
0.0200042
0.0111317
-0.0396103
-0.015169
-6.07957
6.04635
0.0233726
-0.0023853
0.00316084
-0.00254409
0.00328606
0.0233514
-0.0200707
-6.04502
6.05883
0.0309448
0.051829
-0.0409025
0.0513499
-0.0405965
-0.0466576
-0.0254066
-6.09907
6.13975
0.0388443
-0.0512356
-0.129413
-0.0518941
-0.128907
0.307057
-0.0287204
-6.16983
6.18058
0.0436328
-0.0500165
-0.0536549
-0.0506426
-0.0530299
0.181573
-0.0308499
-6.19363
6.20769
0.0464623
-0.0505259
-0.0505045
-0.0513007
-0.04981
0.172487
-0.0322515
-6.22148
6.23328
0.0480977
-0.0480519
-0.0492095
-0.049153
-0.0482317
0.166974
-0.0331293
-6.24266
6.24946
0.0488096
-0.0444162
-0.046016
-0.0460838
-0.0446852
0.15862
-0.033707
-6.2555
6.25942
0.0490187
-0.0416448
-0.0434218
-0.0432871
-0.0418247
0.150821
-0.0342116
-6.26324
6.26531
0.0490657
-0.0395592
-0.0412922
-0.0409836
-0.0396113
0.144431
-6.26809
-0.0353405
6.27044
-0.154385
0.0489934
25.0515
-0.604356
0.261129
-6.27279
-6.26943
-6.27311
-6.2684
25.0265
-0.602701
0.261527
24.997
-0.606352
0.262693
24.9663
-0.614299
0.262622
24.9376
-0.627248
0.261955
24.9117
-0.643452
0.260833
24.891
-0.661333
0.258353
24.8765
-0.679609
0.255103
24.8693
-0.696535
0.250689
24.8708
-0.710393
0.245012
24.8815
-0.719332
0.237815
24.9013
-0.721421
0.229883
24.9293
-0.714898
0.220505
24.9646
-0.698989
0.210133
25.005
-0.67255
0.198914
25.0489
-0.635813
0.186947
25.0928
-0.589615
0.174345
25.1335
-0.53588
0.161227
-0.477675
0.147415
25.0021
0.0020456
0.00173765
24.9998
0.0207915
0.00352575
24.9921
0.0407912
0.00560371
24.98
0.060826
0.00820202
24.9624
0.0853544
0.0115918
24.9362
0.118546
0.0156449
24.8935
0.165503
0.0224004
24.8216
0.233661
0.0310552
6.17202
0.339222
0.043561
6.17119
6.17226
6.17132
-0.00622201
-0.0637427
6.14646
0.0857979
0.00970023
-0.00201061
-0.0190318
-1.52783
1.52258
0.0236079
0.00267203
-0.00292496
-0.0179675
-1.50431
1.49189
0.0294991
0.00377049
-0.0043349
-1.46986
0.0532546
1.48
-0.0646981
0.00556346
-0.00603783
-1.52934
0.15388
1.54075
-0.166961
0.00763063
-0.006467
-1.53678
0.0599468
-0.0634077
1.53849
0.00818042
-1.54752
-0.00691034
0.0599459
-0.0650839
0.00927601
1.55028
-0.00766909
0.057399
-1.55604
1.5575
-0.0614621
0.0102681
-0.00862299
0.0525942
-1.56046
1.561
-0.0557031
0.0111897
-0.00958101
0.0489189
-1.56161
1.56168
-0.0512983
0.0118829
-0.0103716
0.0456509
-1.56109
1.56076
-0.0471853
0.0122295
-1.55708
-0.0438102
0.158206
6.18837
-0.131357
0.0390703
-1.54075
-1.56046
-1.55221
23.9041
-0.685893
0.134418
-6.12724
-5.8504
-6.11091
-5.79136
23.9113
-0.673805
0.136382
23.9158
-0.67923
0.136814
23.9224
-0.689931
0.133869
23.933
-0.705511
0.129013
23.9486
-0.724296
0.123079
23.9704
-0.74459
0.115616
23.9982
-0.764683
0.107574
24.0316
-0.782881
0.0989724
24.0703
-0.797372
0.0900607
24.1138
-0.806407
0.0808707
24.1614
-0.808459
0.072386
24.2132
-0.801994
0.0641377
24.2687
-0.785924
0.0565974
24.3276
-0.759542
0.0498961
24.3894
-0.72261
0.044105
24.4527
-0.675311
0.0391966
24.5146
-0.617884
0.0350409
-0.549247
0.0313798
25.009
0.000763024
0.00131337
25.0097
0.0188677
0.00266315
25.0063
0.0422614
0.00419003
24.9994
0.0647872
0.00604806
24.9893
0.0913874
0.00839599
24.9755
0.127251
0.0109367
24.9557
0.17769
0.0154014
24.9248
0.25431
0.0205287
6.21313
0.379826
0.0274339
6.22149
6.21322
6.22194
-0.00371329
-0.10397
6.19749
0.117471
0.00584545
-0.00112138
-0.0388277
-1.54172
1.53553
0.0446356
0.0015032
-0.00142149
-0.0804472
-1.50521
1.48652
0.0985233
0.00201628
-0.000182582
0.00475038
-0.074951
0.0752152
-0.00505346
0.000221109
0.00449529
-0.212221
0.0130081
-0.0258157
-0.00371926
0.224256
-1.19976
0.00984105
0.0639054
-0.0835372
-0.0124408
1.222
0.0131448
0.057164
-1.26749
1.27579
-0.0638977
-0.0147218
0.0148789
0.0568565
-1.29885
1.30625
-0.0632509
-0.0158895
0.015127
0.0531824
-1.32363
1.32882
-0.057652
-0.0158569
0.0141734
0.0501049
-1.34146
1.3467
-0.0548582
-0.0146585
-1.37326
0.0409286
0.151859
5.65269
-0.202349
-0.0412502
-1.48179
-1.28056
-1.46626
23.9606
-0.660496
-0.213408
-5.74422
-6.15928
-5.83063
-6.16267
24.0197
-0.640835
-0.210429
24.0796
-0.643209
-0.20742
24.14
-0.650604
-0.205196
24.198
-0.660571
-0.203469
24.2514
-0.6724
-0.202051
24.2988
-0.684984
-0.200839
24.339
-0.696819
-0.199692
24.3711
-0.706616
-0.198427
24.3947
-0.713046
-0.196822
24.4101
-0.71509
-0.19468
24.4182
-0.711735
-0.191755
24.4205
-0.701971
-0.187943
24.4185
-0.684733
-0.183038
24.4141
-0.659756
-0.176981
24.4094
-0.626936
-0.16976
24.4067
-0.58647
-0.161497
24.4083
-0.5385
-0.152306
-0.483206
-0.142318
25.0083
-0.00424235
0.000888784
25.0153
0.0110104
0.00176694
25.0218
0.0343499
0.00270653
25.0256
0.0591536
0.00376749
25.0247
0.0896912
0.00497665
25.0289
0.120067
0.00606916
25.0406
0.161976
0.00769543
25.0686
0.221702
0.00880129
6.27556
0.311444
0.00910506
6.28785
6.27713
6.29139
-0.000938541
-0.109188
6.28299
0.10122
0.0014935
-0.00012267
-0.0441616
-1.5777
1.57937
0.0424481
0.000166054
0.000390792
-0.0814142
-1.59951
1.61578
0.0651061
-0.000324186
0.00194945
-0.0272468
-1.71112
1.74994
0.0606395
-7.60925e-06
-0.0228787
-0.0281325
-0.0230898
0.00384755
0.111602
-1.71078
1.67958
-0.0795702
-0.00460141
0.106554
-1.60952
0.00525501
1.59859
-0.0940642
-0.00676416
0.006414
0.0758561
-1.5839
-0.00835585
1.58177
-0.0717628
0.0073446
0.055169
-1.57853
1.57705
-0.0516056
-0.00941952
0.00798577
0.0563089
-1.57632
1.57494
-0.0528494
-0.0100653
0.00841642
0.0503239
-1.57429
1.5737
-0.0477325
-0.0104126
0.00861123
0.0468627
-1.57099
1.5713
-0.0453046
-0.0104751
-1.5711
0.0355957
0.172341
6.2788
-0.154449
-0.0464597
-1.5713
-1.57132
-1.57208
25.1014
-0.523336
-0.253397
-6.28093
-6.27491
-6.2857
-6.27996
25.0985
-0.520631
-0.2527
25.0917
-0.517376
-0.252
25.0829
-0.520212
-0.252127
25.072
-0.525068
-0.25283
25.0593
-0.531884
-0.253869
25.0438
-0.538713
-0.255054
25.0252
-0.544845
-0.256126
25.0035
-0.54933
-0.256771
24.9783
-0.551043
-0.256651
24.95
-0.549626
-0.255446
24.9194
-0.544452
-0.253084
24.8866
-0.534574
-0.248623
24.8524
-0.519055
-0.242592
24.8189
-0.499023
-0.234668
24.7871
-0.473229
-0.224937
24.7586
-0.442306
-0.213532
24.735
-0.40633
-0.200646
-0.366971
-0.186374
25.0069
-0.00869032
0.00047733
25.0169
0.000470154
0.000929674
25.0308
0.0196252
0.00130354
25.039
0.0499729
0.00160633
25.0564
0.0711602
0.00173442
25.0797
0.0957274
0.00149589
25.1174
0.123645
0.00053757
25.1824
0.157033
-0.00181925
6.32912
0.198628
-0.00678444
6.3182
6.33353
6.31702
-0.0861021
0.00142676
6.34734
0.0686253
-0.00219175
-0.0330431
0.00338419
6.42047
0.0885492
-0.00490238
-0.0312185
-0.0332975
-0.0304129
-6.37957
-0.0297745
0.00704156
6.49224
0.0826661
-0.0101514
-0.0291547
-0.0288702
-0.0314273
-6.45248
-0.0096332
0.0124621
-6.5408
6.50033
-0.0574109
-0.0187044
0.0626773
-0.0108091
0.0621413
0.0352648
0.019522
-6.49329
6.47497
-0.1445
-0.0291003
0.0518172
0.0345267
0.051022
0.0584167
-6.45153
0.0252761
6.408
-0.183194
-0.037356
0.0575741
0.061878
0.0610322
0.0559631
0.0287929
-6.36805
6.3404
-0.176366
-0.0425232
0.0539015
0.0549507
0.052918
0.0452758
0.0309588
-6.32704
6.32057
-0.156604
-0.0456841
0.0444868
0.0443596
0.0436614
0.0436566
0.0321628
-6.31711
6.31004
-0.151317
-0.0474081
0.0441166
0.0427323
0.0431823
0.0428251
0.032634
-6.30214
6.29388
-0.140905
-0.0481604
0.0404136
0.0419571
0.039571
0.0380676
0.0327707
-6.28694
6.27945
-0.124629
-0.0483595
0.0352319
0.03829
0.0361922
0.1362
-6.27795
0.0331143
6.2781
-0.121146
-0.0482818
25.0941
-0.386416
-0.259825
-6.27628
-6.27425
-6.27676
-6.27412
25.0847
-0.38207
-0.258672
25.0767
-0.379528
-0.258283
25.0674
-0.379809
-0.258779
25.0571
-0.382339
-0.259455
25.0444
-0.385672
-0.260019
25.0297
-0.389742
-0.260261
25.0128
-0.393349
-0.259958
24.9932
-0.395333
-0.258885
24.9717
-0.39606
-0.256835
24.9479
-0.393963
-0.253597
24.9228