/*--------------------------------*- C++ -*----------------------------------*\
| =========                 |                                                 |
| \\      /  F ield         | OpenFOAM: The Open Source CFD Toolbox           |
|  \\    /   O peration     | Version:  2306                                  |
|   \\  /    A nd           | Website:  www.openfoam.com                      |
|    \\/     M anipulation  |                                                 |
\*---------------------------------------------------------------------------*/
FoamFile
{
    version     2.0;
    format      ascii;
    arch        "LSB;label=32;scalar=64";
    class       volVectorField;
    location    "0.15";
    object      U;
}
// * * * * * * * * * * * * * * * * * * * * * * * * * * * * * * * * * * * * * //

dimensions      [0 1 -1 0 0 0 0];

internalField   nonuniform List<vector> 
111542
(
(99.9933 0.00519926 0.00303521)
(99.9708 0.0105667 0.00630733)
(99.9294 0.0160888 0.00992003)
(99.8678 0.0219307 0.0143257)
(99.7846 0.0278446 0.0198945)
(99.6776 0.0330554 0.0270629)
(99.546 0.0356986 0.0360838)
(99.3919 0.032799 0.0474382)
(99.2249 0.019718 0.0616151)
(99.065 -0.00993701 0.0786377)
(98.9451 -0.0617589 0.0980653)
(98.9057 -0.133294 0.119073)
(98.9722 -0.206286 0.140683)
(99.1347 -0.261068 0.160822)
(99.3484 -0.287243 0.177778)
(99.565 -0.294667 0.191076)
(99.7585 -0.292393 0.200815)
(99.9221 -0.285115 0.207895)
(100.056 -0.275876 0.213174)
(100.164 -0.266941 0.217483)
(100.249 -0.259905 0.221119)
(100.316 -0.255062 0.224513)
(100.369 -0.252077 0.227994)
(100.414 -0.251122 0.231245)
(100.454 -0.251881 0.234162)
(100.494 -0.253754 0.23681)
(100.535 -0.256595 0.238807)
(100.58 -0.259891 0.239996)
(100.63 -0.262865 0.240339)
(100.685 -0.264858 0.239641)
(100.747 -0.265285 0.237677)
(100.813 -0.263663 0.234221)
(100.883 -0.259401 0.229305)
(100.953 -0.25219 0.222884)
(101.022 -0.241954 0.21493)
(101.085 -0.228844 0.205471)
(101.139 -0.213267 0.194551)
(101.183 -0.195606 0.182479)
(101.214 -0.176469 0.169475)
(101.232 -0.156562 0.155817)
(99.9935 0.0154987 0.00297379)
(99.9715 0.0314475 0.00610381)
(99.9306 0.0482592 0.0096697)
(99.8693 0.0663445 0.0140206)
(99.7853 0.0851368 0.019518)
(99.6749 0.102563 0.0265872)
(99.535 0.1137 0.0356685)
(99.365 0.10972 0.0472735)
(99.171 0.0759868 0.0618775)
(98.9721 -0.00852154 0.07967)
(98.8095 -0.160988 0.100449)
(98.7491 -0.374453 0.122779)
(98.8345 -0.595908 0.146386)
(99.043 -0.753523 0.168666)
(99.3016 -0.829382 0.187187)
(99.5464 -0.853999 0.201173)
(99.7546 -0.849906 0.211175)
(99.9253 -0.830468 0.218321)
(100.062 -0.805204 0.223662)
(100.169 -0.780207 0.227988)
(100.25 -0.759897 0.231869)
(100.314 -0.746752 0.235753)
(100.364 -0.740316 0.239659)
(100.406 -0.739759 0.243178)
(100.445 -0.743008 0.246102)
(100.484 -0.748646 0.248413)
(100.525 -0.756459 0.25003)
(100.57 -0.765617 0.250858)
(100.622 -0.774512 0.250784)
(100.68 -0.7814 0.249644)
(100.746 -0.784495 0.247262)
(100.817 -0.782069 0.243482)
(100.892 -0.772348 0.238218)
(100.968 -0.754092 0.231413)
(101.043 -0.72669 0.223049)
(101.111 -0.690208 0.213169)
(101.171 -0.645467 0.201877)
(101.218 -0.59369 0.189369)
(101.252 -0.536661 0.175868)
(101.271 -0.476199 0.161701)
(99.9939 0.0254496 0.00281775)
(99.9728 0.0517473 0.00576945)
(99.9335 0.0802273 0.00916286)
(99.8735 0.111798 0.0133301)
(99.7892 0.14623 0.0186413)
(99.674 0.181211 0.0255588)
(99.5204 0.210424 0.0346309)
(99.3209 0.220202 0.0464979)
(99.0728 0.183855 0.0618491)
(98.7934 0.0529117 0.0812716)
(98.5428 -0.281293 0.105094)
(98.4325 -0.74172 0.132421)
(98.557 -1.15562 0.15863)
(98.861 -1.38844 0.183815)
(99.2015 -1.47853 0.204247)
(99.495 -1.49994 0.218924)
(99.7307 -1.47821 0.228884)
(99.9148 -1.43618 0.235705)
(100.055 -1.38916 0.240714)
(100.159 -1.34508 0.24491)
(100.235 -1.31087 0.249332)
(100.29 -1.28656 0.254216)
(100.333 -1.27817 0.258919)
(100.371 -1.28356 0.262855)
(100.408 -1.29571 0.265804)
(100.445 -1.31092 0.267673)
(100.484 -1.3279 0.268423)
(100.528 -1.3451 0.268049)
(100.581 -1.36021 0.266558)
(100.642 -1.37057 0.263929)
(100.713 -1.37334 0.260105)
(100.792 -1.36574 0.255009)
(100.879 -1.3452 0.248562)
(100.969 -1.30983 0.240704)
(101.058 -1.25868 0.231407)
(101.142 -1.19199 0.22069)
(101.216 -1.11125 0.208631)
(101.277 -1.01917 0.195378)
(101.321 -0.919502 0.181143)
(101.351 -0.816504 0.166276)
(99.9945 0.0346121 0.00257566)
(99.9755 0.0707576 0.00526805)
(99.9396 0.110883 0.00837533)
(99.8837 0.157091 0.0122232)
(99.8023 0.210621 0.0171823)
(99.6859 0.27098 0.0237334)
(99.5198 0.333936 0.0325006)
(99.2835 0.386892 0.0442662)
(98.9481 0.400086 0.0599947)
(98.4498 0.199103 0.0808712)
(98.1933 0.0199267 0.0874829)
(97.8493 -0.634459 0.102802)
(97.9174 -1.43217 0.116952)
(98.3959 -1.93956 0.130085)
(98.8929 -2.08274 0.143367)
(99.2788 -2.10733 0.152267)
(99.5867 -2.06345 0.157383)
(99.8173 -1.98553 0.159995)
(99.9849 -1.90215 0.161314)
(100.106 -1.82945 0.162336)
(100.254 -1.89421 0.273745)
(100.289 -1.8471 0.284737)
(100.305 -1.8202 0.291162)
(100.319 -1.81338 0.293576)
(100.336 -1.81955 0.293867)
(100.355 -1.83596 0.292721)
(100.376 -1.86034 0.29031)
(100.403 -1.88922 0.286771)
(100.44 -1.91837 0.282232)
(100.489 -1.94308 0.276767)
(100.552 -1.95832 0.27039)
(100.631 -1.959 0.263078)
(100.724 -1.94048 0.254783)
(100.829 -1.89908 0.245456)
(100.94 -1.83261 0.23506)
(101.054 -1.7408 0.22358)
(101.161 -1.62561 0.211031)
(101.257 -1.49131 0.197478)
(101.335 -1.34464 0.18304)
(101.401 -1.19536 0.167979)
(99.9955 0.0422727 0.00224849)
(99.9801 0.0869223 0.00459197)
(99.9504 0.13773 0.00729769)
(99.9032 0.198555 0.0106624)
(99.832 0.273257 0.0150262)
(99.7251 0.365594 0.0208332)
(99.563 0.478378 0.0286875)
(99.3129 0.610256 0.0393673)
(98.8697 0.747769 0.0538798)
(98.5256 0.754894 0.0591005)
(97.7141 0.364937 0.0720068)
(96.9143 -0.700196 0.0884816)
(97.0137 -2.34691 0.102942)
(98.1372 -2.94498 0.116535)
(98.8527 -2.97463 0.134813)
(99.3141 -2.93096 0.146037)
(99.6698 -2.80779 0.151281)
(99.9067 -2.66388 0.153486)
(100.06 -2.52905 0.154575)
(100.15 -2.42064 0.155884)
(100.198 -2.36623 0.159508)
(100.085 -2.51486 0.344323)
(99.9671 -2.51995 0.357298)
(99.8561 -2.51501 0.357219)
(99.757 -2.50971 0.348868)
(99.6652 -2.51261 0.334964)
(99.5829 -2.52454 0.317387)
(99.5154 -2.54296 0.297841)
(99.4677 -2.56425 0.277763)
(99.4449 -2.58387 0.258196)
(99.4512 -2.59613 0.239775)
(99.4899 -2.59454 0.222795)
(99.5625 -2.5724 0.207288)
(99.6683 -2.52361 0.193132)
(99.8039 -2.44353 0.180121)
(99.9631 -2.3297 0.168006)
(100.138 -2.18257 0.15653)
(100.317 -2.00597 0.145453)
(100.489 -1.80786 0.134548)
(100.677 -1.60299 0.123572)
(99.997 0.0475195 0.00184217)
(99.9866 0.098223 0.00375377)
(99.9665 0.157185 0.00594298)
(99.9337 0.23013 0.00864994)
(99.8827 0.324015 0.0121402)
(99.8029 0.448257 0.0167479)
(99.6751 0.616602 0.0229168)
(99.4624 0.849415 0.0311846)
(99.0405 1.17814 0.0421702)
(98.6303 1.34019 0.0464286)
(97.6751 1.48121 0.0441138)
(95.5702 0.70914 0.0396632)
(94.3828 -3.43293 0.0533968)
(98.1806 -4.71912 0.0486847)
(98.6845 -3.96633 0.0762284)
(99.2624 -3.91126 0.0762102)
(99.6427 -3.69876 0.0906335)
(99.7965 -3.46889 0.112002)
(99.8131 -3.26797 0.12753)
(99.7259 -3.08134 0.130329)
(98.5231 -2.80826 0.167005)
(95.0696 -2.57595 0.214539)
(95.1777 -2.64365 0.200666)
(95.3047 -2.67914 0.18858)
(95.42 -2.70317 0.176889)
(95.5283 -2.73026 0.164488)
(95.6389 -2.76482 0.150918)
(95.7568 -2.80696 0.136181)
(95.8843 -2.85455 0.120572)
(96.0233 -2.90335 0.104542)
(96.1756 -2.94707 0.0886051)
(96.3426 -2.97791 0.0732779)
(96.5256 -2.98743 0.0590186)
(96.7252 -2.96746 0.0462137)
(96.9416 -2.91109 0.0351381)
(97.174 -2.81354 0.0259415)
(97.4208 -2.67271 0.0186468)
(97.6777 -2.48951 0.0131558)
(97.9362 -2.26749 0.00930166)
(98.2366 -2.01148 0.00705973)
(99.9989 0.0494934 0.00138463)
(99.9949 0.102671 0.00280937)
(99.987 0.165464 0.00440533)
(99.9739 0.244874 0.00632537)
(99.9528 0.350061 0.00871779)
(99.9188 0.494763 0.0117428)
(99.8637 0.701209 0.015558)
(99.7728 1.00819 0.0202328)
(99.5974 1.48935 0.0255682)
(99.3275 1.89115 0.0276949)
(98.6041 2.82967 0.0244728)
(95.46 5.82941 0.0145057)
(77.1109 -4.27347 0.0292801)
(102.71 -10.2886 0.0216033)
(54.1731 -3.53121 -0.738195)
(76.8888 -4.79906 -0.367193)
(80.7589 -4.04402 -0.272785)
(83.4918 -3.67711 -0.174819)
(85.5886 -3.45494 -0.101548)
(87.3316 -3.34677 -0.050955)
(93.187 -3.78807 -0.125956)
(96.6893 -3.44375 -0.311493)
(96.8393 -3.32786 -0.303142)
(96.9919 -3.25166 -0.286988)
(97.1145 -3.20452 -0.266954)
(97.2168 -3.17799 -0.246101)
(97.3087 -3.1675 -0.226378)
(97.3922 -3.16898 -0.209056)
(97.465 -3.17772 -0.19484)
(97.5244 -3.18822 -0.183893)
(97.5678 -3.19438 -0.175928)
(97.594 -3.18972 -0.170342)
(97.6032 -3.1677 -0.166369)
(97.5971 -3.12217 -0.163196)
(97.5797 -3.04789 -0.160077)
(97.5564 -2.941 -0.156405)
(97.5339 -2.79921 -0.151768)
(97.5193 -2.62181 -0.145934)
(97.5205 -2.40857 -0.138843)
(97.5612 -2.15651 -0.130503)
(100.001 0.047599 0.000986081)
(100.004 0.0989037 0.00188119)
(100.009 0.159958 0.0028276)
(100.018 0.237867 0.00388987)
(100.031 0.341993 0.00508088)
(100.051 0.486171 0.00635748)
(100.084 0.692059 0.00756213)
(100.145 0.995728 0.00827558)
(100.288 1.4597 0.00753807)
(100.336 1.87291 0.00724198)
(100.608 2.86308 0.00300546)
(102.43 5.40209 -0.00850389)
(111.213 3.87565 -0.0640409)
(109.108 -6.7694 0.0169795)
(102.79 -6.82096 -0.04685)
(101.125 -5.00167 -0.064043)
(100.695 -3.99617 -0.074581)
(100.55 -3.44676 -0.0802229)
(100.494 -3.13371 -0.0808523)
(100.449 -2.95899 -0.07822)
(100.373 -2.73269 -0.151655)
(100.39 -2.34101 -0.303105)
(100.36 -2.26349 -0.307193)
(100.331 -2.23432 -0.30471)
(100.3 -2.23592 -0.298551)
(100.262 -2.25334 -0.290459)
(100.214 -2.27934 -0.281414)
(100.156 -2.30925 -0.272186)
(100.087 -2.33845 -0.263354)
(100.005 -2.36223 -0.255235)
(99.9096 -2.37603 -0.247878)
(99.8004 -2.37567 -0.241112)
(99.6793 -2.3574 -0.234613)
(99.5485 -2.31815 -0.227978)
(99.4117 -2.25571 -0.220809)
(99.2734 -2.1688 -0.212769)
(99.1392 -2.05721 -0.203636)
(99.0154 -1.92172 -0.193314)
(98.9094 -1.76393 -0.181823)
(98.8155 -1.58649 -0.169212)
(100.003 0.0417122 0.000482955)
(100.012 0.0867596 0.000875727)
(100.03 0.140397 0.00124998)
(100.059 0.208722 0.00152258)
(100.103 0.299416 0.00159146)
(100.17 0.422821 0.00125375)
(100.273 0.593302 0.00011092)
(100.439 0.830553 -0.00256729)
(100.756 1.15925 -0.00813672)
(100.981 1.40096 -0.0102383)
(101.836 1.86342 -0.0177843)
(103.456 1.77452 -0.0324453)
(105.252 -0.234042 -0.0520464)
(104.799 -2.82687 -0.0342911)
(102.995 -3.53985 -0.0556849)
(101.783 -3.3103 -0.0733082)
(101.169 -2.94805 -0.083486)
(100.85 -2.6459 -0.0890723)
(100.673 -2.42527 -0.0923549)
(100.557 -2.26818 -0.0948374)
(100.475 -2.15118 -0.0982711)
(100.373 -1.892 -0.262752)
(100.329 -1.8786 -0.264355)
(100.291 -1.87616 -0.263273)
(100.255 -1.88359 -0.26124)
(100.216 -1.89656 -0.259002)
(100.17 -1.9118 -0.256764)
(100.115 -1.92714 -0.254555)
(100.051 -1.94031 -0.25229)
(99.9769 -1.94871 -0.249784)
(99.8927 -1.94957 -0.246789)
(99.7994 -1.94022 -0.243047)
(99.6986 -1.91811 -0.23832)
(99.5927 -1.88111 -0.232418)
(99.4848 -1.82752 -0.225222)
(99.3783 -1.75636 -0.216692)
(99.2774 -1.66741 -0.206867)
(99.1866 -1.5614 -0.195865)
(99.1109 -1.44029 -0.183883)
(99.0466 -1.30819 -0.171235)
(100.004 0.0323581 0.00011157)
(100.019 0.067313 0.0001673)
(100.047 0.108798 1.05769e-05)
(100.092 0.161239 -0.000411736)
(100.159 0.229774 -0.0012743)
(100.258 0.32035 -0.0029036)
(100.403 0.439345 -0.00583085)
(100.622 0.591312 -0.0109115)
(100.957 0.772532 -0.0195325)
(101.444 0.858712 -0.033452)
(102.087 0.763847 -0.0544375)
(102.767 0.238093 -0.0837005)
(103.13 -0.748872 -0.117422)
(102.888 -1.57604 -0.148612)
(102.251 -1.87555 -0.17946)
(101.629 -1.87447 -0.203261)
(101.193 -1.78454 -0.218316)
(100.914 -1.67888 -0.227196)
(100.729 -1.58224 -0.232573)
(100.598 -1.50084 -0.236035)
(100.506 -1.43505 -0.238631)
(100.438 -1.38205 -0.241184)
(100.383 -1.34438 -0.243091)
(100.334 -1.31884 -0.24444)
(100.287 -1.30446 -0.245418)
(100.238 -1.29874 -0.246041)
(100.185 -1.29848 -0.246251)
(100.127 -1.30078 -0.245958)
(100.062 -1.30302 -0.245044)
(99.9911 -1.30272 -0.243371)
(99.9134 -1.29756 -0.240795)
(99.8301 -1.28552 -0.23718)
(99.7423 -1.26491 -0.232409)
(99.6519 -1.23449 -0.226398)
(99.5613 -1.19344 -0.219112)
(99.473 -1.14153 -0.210566)
(99.39 -1.07905 -0.200829)
(99.3154 -1.00695 -0.190027)
(99.252 -0.92693 -0.178335)
(99.1912 -0.841791 -0.165976)
(100.005 0.0204502 -0.000188532)
(100.024 0.0424489 -0.000476211)
(100.059 0.0685596 -0.000990911)
(100.114 0.101161 -0.00187611)
(100.195 0.143191 -0.00338365)
(100.311 0.197116 -0.00587307)
(100.475 0.264448 -0.00990724)
(100.703 0.342721 -0.016265)
(101.013 0.419 -0.0260198)
(101.414 0.453911 -0.0404098)
(101.881 0.39138 -0.0606158)
(102.314 0.156601 -0.0872618)
(102.541 -0.260636 -0.117981)
(102.43 -0.686158 -0.148116)
(102.049 -0.925871 -0.175252)
(101.6 -0.981225 -0.196237)
(101.231 -0.949679 -0.210644)
(100.967 -0.894663 -0.219758)
(100.777 -0.839901 -0.225527)
(100.636 -0.792175 -0.229306)
(100.529 -0.754288 -0.231947)
(100.445 -0.729432 -0.23403)
(100.376 -0.716163 -0.23584)
(100.316 -0.711612 -0.237345)
(100.262 -0.713517 -0.238522)
(100.209 -0.719985 -0.239353)
(100.155 -0.72907 -0.239787)
(100.098 -0.739018 -0.239717)
(100.036 -0.74835 -0.238991)
(99.9701 -0.755752 -0.237442)
(99.8989 -0.759977 -0.234911)
(99.8236 -0.759888 -0.231262)
(99.7452 -0.754472 -0.226393)
(99.6654 -0.742932 -0.220251)
(99.586 -0.724393 -0.212868)
(99.5094 -0.698662 -0.204273)
(99.438 -0.665771 -0.19456)
(99.3744 -0.626091 -0.183879)
(99.321 -0.580422 -0.172431)
(99.2731 -0.529851 -0.160489)
(100.006 0.00699203 -0.000367539)
(100.026 0.0144801 -0.000774173)
(100.065 0.0233923 -0.00151532)
(100.125 0.0343813 -0.00259567)
(100.212 0.0484975 -0.00445505)
(100.335 0.0663093 -0.00738901)
(100.505 0.0878358 -0.0119982)
(100.731 0.111603 -0.0189451)
(101.023 0.132498 -0.0292873)
(101.373 0.13789 -0.0437324)
(101.748 0.107914 -0.0629778)
(102.072 0.0220613 -0.0870301)
(102.242 -0.116415 -0.114374)
(102.181 -0.259834 -0.14202)
(101.915 -0.350623 -0.166378)
(101.562 -0.378311 -0.185801)
(101.237 -0.372162 -0.199855)
(100.983 -0.356807 -0.209087)
(100.792 -0.341381 -0.215086)
(100.647 -0.328128 -0.219092)
(100.535 -0.31776 -0.221957)
(100.447 -0.310689 -0.224198)
(100.375 -0.306004 -0.226111)
(100.315 -0.302765 -0.227715)
(100.261 -0.30024 -0.229131)
(100.209 -0.298054 -0.230315)
(100.156 -0.295853 -0.231141)
(100.101 -0.293276 -0.231461)
(100.042 -0.29 -0.231102)
(99.9779 -0.285726 -0.229897)
(99.9097 -0.280174 -0.227692)
(99.8374 -0.273106 -0.224356)
(99.7622 -0.264361 -0.219791)
(99.6856 -0.253891 -0.2139)
(99.6095 -0.241496 -0.206894)
(99.5356 -0.2274 -0.198696)
(99.4665 -0.211842 -0.189372)
(99.4044 -0.19512 -0.179075)
(99.3514 -0.177676 -0.168002)
(99.3007 -0.160252 -0.156438)
(99.9938 0.00513835 0.00872187)
(99.9725 0.0103646 0.0180343)
(99.9331 0.0158419 0.0285735)
(99.8746 0.0216325 0.0414405)
(99.7955 0.0274786 0.0576825)
(99.6936 0.0325972 0.0785027)
(99.568 0.0353056 0.104942)
(99.421 0.0326581 0.138367)
(99.2617 0.0200045 0.179996)
(99.109 -0.00890286 0.230051)
(98.9951 -0.0594593 0.287683)
(98.9594 -0.129632 0.350405)
(99.0262 -0.200277 0.414126)
(99.1851 -0.252581 0.47329)
(99.3926 -0.277129 0.523127)
(99.6018 -0.283796 0.562165)
(99.7873 -0.281217 0.591012)
(99.9428 -0.273834 0.611993)
(100.069 -0.264503 0.627473)
(100.169 -0.255555 0.63953)
(100.245 -0.248196 0.649323)
(100.304 -0.2428 0.658008)
(100.35 -0.239331 0.666429)
(100.388 -0.23805 0.674381)
(100.423 -0.238738 0.681668)
(100.457 -0.240888 0.688165)
(100.495 -0.244043 0.69317)
(100.537 -0.247634 0.696231)
(100.584 -0.250967 0.697007)
(100.639 -0.253352 0.694923)
(100.7 -0.254152 0.689379)
(100.766 -0.25282 0.679826)
(100.836 -0.248896 0.666096)
(100.907 -0.242084 0.648006)
(100.976 -0.232292 0.625478)
(101.04 -0.219659 0.598612)
(101.096 -0.204532 0.567647)
(101.141 -0.187398 0.533209)
(101.174 -0.168872 0.495882)
(101.194 -0.149583 0.456346)
(99.994 0.0152828 0.0085244)
(99.9731 0.0309141 0.0175363)
(99.9343 0.0475115 0.0278824)
(99.876 0.0653662 0.0405521)
(99.7959 0.0839126 0.0566008)
(99.6905 0.101113 0.0772768)
(99.5567 0.112328 0.103946)
(99.3938 0.108885 0.13816)
(99.2077 0.0763326 0.181356)
(99.0163 -0.00582035 0.234308)
(98.8595 -0.15419 0.296487)
(98.803 -0.361113 0.365579)
(98.8885 -0.576796 0.436555)
(99.0918 -0.730306 0.502174)
(99.3425 -0.80267 0.555969)
(99.5786 -0.825879 0.596536)
(99.7785 -0.821531 0.625609)
(99.9416 -0.802308 0.6463)
(100.071 -0.777273 0.661457)
(100.171 -0.752321 0.673131)
(100.246 -0.731196 0.682715)
(100.304 -0.716569 0.691643)
(100.349 -0.708907 0.70038)
(100.386 -0.707625 0.708524)
(100.42 -0.710765 0.71574)
(100.455 -0.717057 0.721876)
(100.493 -0.725962 0.726632)
(100.536 -0.736513 0.729595)
(100.586 -0.747065 0.730253)
(100.644 -0.755716 0.727996)
(100.709 -0.760532 0.722217)
(100.78 -0.759653 0.712396)
(100.854 -0.751405 0.698183)
(100.931 -0.734586 0.67936)
(101.005 -0.708581 0.655864)
(101.074 -0.673441 0.627819)
(101.133 -0.629967 0.59555)
(101.181 -0.579518 0.559572)
(101.215 -0.523877 0.520506)
(101.236 -0.464763 0.479114)
(99.9943 0.0250535 0.0080782)
(99.9744 0.0509184 0.0166044)
(99.937 0.078948 0.0264583)
(99.8799 0.110029 0.0386156)
(99.7993 0.143942 0.054175)
(99.6891 0.17845 0.0745083)
(99.5416 0.207411 0.101287)
(99.3496 0.217433 0.136503)
(99.11 0.182282 0.182304)
(98.8397 0.0542799 0.240535)
(98.5973 -0.272615 0.311792)
(98.4902 -0.722776 0.392782)
(98.6112 -1.12574 0.475642)
(98.907 -1.35115 0.551642)
(99.2373 -1.43731 0.611281)
(99.521 -1.45783 0.653562)
(99.7479 -1.43659 0.681937)
(99.9244 -1.39532 0.700923)
(100.058 -1.34881 0.714176)
(100.157 -1.30414 0.724101)
(100.229 -1.26593 0.732042)
(100.282 -1.23511 0.740132)
(100.322 -1.22462 0.748834)
(100.356 -1.23126 0.757339)
(100.389 -1.24583 0.7649)
(100.424 -1.26391 0.771139)
(100.461 -1.28399 0.775773)
(100.504 -1.30438 0.778414)
(100.555 -1.32262 0.778549)
(100.615 -1.33595 0.775594)
(100.685 -1.34145 0.768945)
(100.764 -1.33631 0.758057)
(100.85 -1.31802 0.742504)
(100.939 -1.28469 0.722004)
(101.027 -1.23543 0.696471)
(101.11 -1.17051 0.666007)
(101.183 -1.0915 0.630942)
(101.243 -1.00117 0.591785)
(101.288 -0.903284 0.549218)
(101.319 -0.802088 0.504182)
(99.9949 0.0340462 0.00738857)
(99.977 0.06959 0.0151851)
(99.9428 0.109038 0.0242354)
(99.8896 0.154462 0.0354976)
(99.8117 0.207073 0.050087)
(99.6999 0.266386 0.0694561)
(99.54 0.328229 0.0955411)
(99.3115 0.380163 0.130839)
(98.9857 0.392734 0.178468)
(98.4993 0.194363 0.242103)
(98.2432 0.0118282 0.274221)
(97.9046 -0.645453 0.348727)
(97.9734 -1.43671 0.429806)
(98.4454 -1.94309 0.507905)
(98.9299 -2.08392 0.569925)
(99.3053 -2.10871 0.612414)
(99.6054 -2.06564 0.638896)
(99.8303 -1.98771 0.654504)
(99.9938 -1.90332 0.663837)
(100.113 -1.82856 0.670551)
(100.262 -1.8525 0.789085)
(100.297 -1.78149 0.797457)
(100.307 -1.74314 0.803554)
(100.317 -1.73672 0.80873)
(100.333 -1.74993 0.814013)
(100.35 -1.77711 0.819136)
(100.369 -1.81411 0.823364)
(100.393 -1.85596 0.82589)
(100.425 -1.89728 0.825885)
(100.47 -1.93264 0.822537)
(100.529 -1.95663 0.81513)
(100.603 -1.96408 0.803099)
(100.691 -1.95044 0.786072)
(100.792 -1.91225 0.763877)
(100.901 -1.84762 0.736555)
(101.011 -1.75657 0.704312)
(101.117 -1.64132 0.667533)
(101.212 -1.50644 0.626714)
(101.289 -1.35888 0.582435)
(101.357 -1.20877 0.535369)
(99.9959 0.0415435 0.00645777)
(99.9813 0.0854201 0.0132587)
(99.9532 0.135322 0.0211634)
(99.9082 0.195025 0.0310485)
(99.84 0.268293 0.0439491)
(99.7373 0.358757 0.0612456)
(99.5807 0.469075 0.0848605)
(99.3378 0.597685 0.117379)
(98.9043 0.730807 0.162173)
(98.5627 0.732524 0.187397)
(97.7605 0.340364 0.250916)
(96.9689 -0.72093 0.333461)
(97.0683 -2.34927 0.432352)
(98.1759 -2.94098 0.525738)
(98.8722 -2.95997 0.592482)
(99.3213 -2.91342 0.633551)
(99.6715 -2.78766 0.657005)
(99.9054 -2.63944 0.669701)
(100.058 -2.49986 0.676525)
(100.152 -2.3869 0.681147)
(100.221 -2.31549 0.689598)
(100.179 -2.44585 0.782945)
(100.051 -2.45849 0.783107)
(99.9254 -2.46341 0.776214)
(99.8098 -2.47107 0.76652)
(99.6987 -2.48965 0.75556)
(99.5953 -2.51886 0.743584)
(99.5067 -2.55498 0.730537)
(99.4396 -2.59337 0.716191)
(99.3998 -2.62856 0.700171)
(99.3919 -2.65418 0.682056)
(99.4193 -2.66327 0.661496)
(99.4833 -2.64893 0.638277)
(99.5827 -2.6051 0.612374)
(99.7137 -2.52735 0.583905)
(99.8703 -2.41358 0.553089)
(100.044 -2.26461 0.520171)
(100.223 -2.08471 0.485383)
(100.397 -1.88219 0.448878)
(100.588 -1.67194 0.410685)
(99.9974 0.0466594 0.00533461)
(99.9876 0.0964517 0.0109074)
(99.9686 0.154315 0.0173341)
(99.9375 0.225832 0.0253287)
(99.8888 0.317776 0.0357108)
(99.8121 0.439298 0.0495558)
(99.6883 0.603726 0.068335)
(99.4807 0.830768 0.0940005)
(99.0653 1.15075 0.128975)
(98.657 1.30861 0.149561)
(97.7055 1.44261 0.177178)
(95.6103 0.66078 0.230563)
(94.4306 -3.46795 0.334511)
(98.2321 -4.71617 0.441698)
(98.7196 -3.88077 0.466928)
(99.2604 -3.86629 0.50022)
(99.6416 -3.67374 0.555403)
(99.8007 -3.43057 0.634646)
(99.8318 -3.19377 0.721231)
(99.7763 -2.95961 0.79126)
(99.0796 -2.44013 0.764292)
(95.4555 -2.08723 0.406347)
(95.496 -2.21156 0.383993)
(95.5424 -2.31069 0.366195)
(95.5779 -2.40689 0.351305)
(95.6168 -2.51184 0.338104)
(95.6734 -2.62491 0.325175)
(95.7535 -2.7412 0.311294)
(95.8579 -2.85463 0.295692)
(95.9852 -2.95836 0.278091)
(96.1336 -3.04493 0.258664)
(96.3012 -3.10668 0.237964)
(96.4864 -3.13625 0.216726)
(96.6879 -3.12713 0.195815)
(96.9049 -3.07433 0.176041)
(97.1363 -2.97489 0.158044)
(97.3803 -2.8284 0.142204)
(97.6334 -2.63708 0.128598)
(97.8879 -2.40546 0.117019)
(98.1855 -2.13883 0.107096)
(99.9991 0.0486247 0.00401223)
(99.9955 0.100793 0.00818751)
(99.9883 0.162351 0.0128933)
(99.9761 0.240126 0.0185936)
(99.9562 0.343033 0.0257642)
(99.9239 0.484443 0.0349531)
(99.8706 0.685995 0.0467914)
(99.7815 0.985581 0.0617959)
(99.6067 1.45531 0.0798529)
(99.3366 1.85081 0.0903402)
(98.6103 2.77583 0.1006)
(95.4356 5.72164 0.121084)
(77.3328 -4.66454 0.242013)
(54.2459 -4.68326 -1.19516)
(76.6865 -4.9062 -0.824309)
(80.8227 -4.16357 -1.14178)
(83.2311 -3.76837 -1.31163)
(84.7441 -3.47699 -1.32179)
(85.8837 -3.28188 -1.2123)
(89.996 -3.2344 -0.800573)
(95.6637 -3.19039 -0.659386)
(95.8982 -3.10638 -0.624706)
(96.1674 -3.07125 -0.594248)
(96.4216 -3.07206 -0.570504)
(96.6598 -3.09664 -0.553757)
(96.8832 -3.1365 -0.542984)
(97.0868 -3.18433 -0.536821)
(97.2642 -3.23312 -0.533793)
(97.4106 -3.27605 -0.532416)
(97.5237 -3.30661 -0.531305)
(97.6031 -3.31864 -0.529241)
(97.6511 -3.30641 -0.525195)
(97.6718 -3.26493 -0.518363)
(97.6711 -3.19018 -0.508175)
(97.6567 -3.07946 -0.494308)
(97.637 -2.93155 -0.476729)
(97.6208 -2.74653 -0.455638)
(97.6173 -2.52485 -0.431467)
(97.6496 -2.26409 -0.404609)
(100.001 0.0466821 0.00274901)
(100.004 0.0969639 0.00541598)
(100.01 0.156802 0.00827573)
(100.019 0.233075 0.0114989)
(100.032 0.334893 0.0151501)
(100.051 0.475719 0.0191646)
(100.084 0.676674 0.0231781)
(100.143 0.973064 0.0261311)
(100.281 1.42638 0.0253757)
(100.326 1.83362 0.0238086)
(100.59 2.81248 0.0128694)
(102.369 5.3467 -0.0220165)
(110.984 4.18161 -0.0348796)
(109.059 -6.6229 -0.239653)
(102.778 -6.76737 -0.360365)
(101.148 -4.94591 -0.450185)
(100.724 -3.94191 -0.519438)
(100.578 -3.38875 -0.571366)
(100.517 -3.06866 -0.605519)
(100.462 -2.88715 -0.623224)
(100.342 -2.6373 -0.666017)
(100.359 -2.29158 -0.759483)
(100.338 -2.22737 -0.75426)
(100.316 -2.21529 -0.744831)
(100.29 -2.23487 -0.735573)
(100.256 -2.26894 -0.728007)
(100.212 -2.30906 -0.722235)
(100.159 -2.35016 -0.718013)
(100.094 -2.38758 -0.714843)
(100.016 -2.41683 -0.711935)
(99.9245 -2.43371 -0.708313)
(99.8197 -2.43443 -0.702923)
(99.7029 -2.41565 -0.69474)
(99.5764 -2.37466 -0.682832)
(99.4435 -2.30956 -0.66653)
(99.3088 -2.21937 -0.645424)
(99.1776 -2.10413 -0.619447)
(99.0562 -1.96481 -0.588845)
(98.9519 -1.8032 -0.554141)
(98.8595 -1.62229 -0.515889)
(100.003 0.0408281 0.00141821)
(100.012 0.0850383 0.00272588)
(100.03 0.137574 0.00387467)
(100.058 0.204431 0.00475984)
(100.101 0.293082 0.00509434)
(100.166 0.413572 0.00429365)
(100.266 0.579919 0.00123822)
(100.428 0.811361 -0.00614555)
(100.737 1.13204 -0.0217539)
(100.959 1.36956 -0.032399)
(101.797 1.82464 -0.0697351)
(103.396 1.73465 -0.14131)
(105.172 -0.244992 -0.249338)
(104.727 -2.80788 -0.376926)
(102.957 -3.52582 -0.480187)
(101.764 -3.29368 -0.549544)
(101.161 -2.93243 -0.590739)
(100.85 -2.63222 -0.612329)
(100.678 -2.41325 -0.622775)
(100.565 -2.25759 -0.627644)
(100.479 -2.13503 -0.630913)
(100.376 -1.85735 -0.76702)
(100.339 -1.8406 -0.764557)
(100.306 -1.84009 -0.761035)
(100.272 -1.85204 -0.758119)
(100.234 -1.87057 -0.756035)
(100.189 -1.89162 -0.754414)
(100.136 -1.91241 -0.752708)
(100.073 -1.93024 -0.750248)
(100 -1.94228 -0.746288)
(99.9176 -1.9457 -0.74009)
(99.8261 -1.93789 -0.73098)
(99.7271 -1.91651 -0.718406)
(99.6229 -1.87963 -0.701949)
(99.5166 -1.82579 -0.681401)
(99.4115 -1.7542 -0.656748)
(99.3117 -1.66484 -0.628182)
(99.2217 -1.55853 -0.59609)
(99.1463 -1.43732 -0.561026)
(99.0811 -1.30552 -0.523704)
(100.004 0.0316793 0.000328348)
(100.019 0.065948 0.000463748)
(100.046 0.10655 0.000163512)
(100.09 0.157865 -0.000890492)
(100.155 0.224817 -0.00325352)
(100.25 0.313225 -0.00784828)
(100.392 0.4293 -0.0161904)
(100.604 0.577461 -0.0307565)
(100.929 0.753967 -0.055558)
(101.404 0.838415 -0.0961602)
(102.031 0.746221 -0.158337)
(102.696 0.232681 -0.246876)
(103.052 -0.728093 -0.355058)
(102.813 -1.53784 -0.470616)
(102.191 -1.83201 -0.567273)
(101.586 -1.82915 -0.63452)
(101.165 -1.73982 -0.675832)
(100.898 -1.63598 -0.699677)
(100.722 -1.54124 -0.713426)
(100.599 -1.46129 -0.721317)
(100.512 -1.39571 -0.725574)
(100.45 -1.33978 -0.727324)
(100.4 -1.30214 -0.728672)
(100.356 -1.27883 -0.730108)
(100.312 -1.26721 -0.731332)
(100.267 -1.26411 -0.732071)
(100.217 -1.26617 -0.732095)
(100.161 -1.27041 -0.731058)
(100.098 -1.27421 -0.728494)
(100.028 -1.27513 -0.723888)
(99.951 -1.27093 -0.716734)
(99.8682 -1.25968 -0.70658)
(99.7808 -1.23979 -0.693059)
(99.6905 -1.2101 -0.675908)
(99.5998 -1.16987 -0.655016)
(99.5114 -1.1189 -0.630427)
(99.428 -1.05749 -0.602331)
(99.353 -0.986595 -0.571075)
(99.2888 -0.907889 -0.537107)
(99.2268 -0.824164 -0.50088)
(100.005 0.0199692 -0.000484787)
(100.023 0.0415178 -0.00120428)
(100.057 0.0670752 -0.0025403)
(100.111 0.0990392 -0.00494949)
(100.189 0.140062 -0.00918356)
(100.301 0.192696 -0.01628)
(100.46 0.258409 -0.0278447)
(100.68 0.334854 -0.0461932)
(100.981 0.40932 -0.0744879)
(101.371 0.443593 -0.116561)
(101.824 0.382643 -0.176153)
(102.246 0.153056 -0.254995)
(102.467 -0.255746 -0.348131)
(102.36 -0.670934 -0.443308)
(101.988 -0.901936 -0.526375)
(101.552 -0.953223 -0.588092)
(101.197 -0.920626 -0.629067)
(100.944 -0.865981 -0.654886)
(100.764 -0.811928 -0.671134)
(100.632 -0.764896 -0.681454)
(100.533 -0.727474 -0.688006)
(100.457 -0.70251 -0.692252)
(100.395 -0.689459 -0.695576)
(100.343 -0.685385 -0.698307)
(100.295 -0.687966 -0.700331)
(100.247 -0.695239 -0.701501)
(100.197 -0.705202 -0.70163)
(100.143 -0.716039 -0.7004)
(100.084 -0.726224 -0.697387)
(100.019 -0.734412 -0.692135)
(99.9484 -0.739343 -0.684219)
(99.8732 -0.739885 -0.673284)
(99.7944 -0.735033 -0.659072)
(99.7138 -0.723982 -0.641442)
(99.6333 -0.706089 -0.620429)
(99.5553 -0.681078 -0.59613)
(99.4823 -0.648959 -0.568775)
(99.4169 -0.610144 -0.538734)
(99.3615 -0.565444 -0.506468)
(99.3107 -0.51604 -0.472505)
(100.006 0.00681166 -0.00094634)
(100.025 0.0141815 -0.00208848)
(100.062 0.0228643 -0.00400373)
(100.121 0.0336507 -0.00705712)
(100.205 0.047373 -0.0122746)
(100.324 0.0647177 -0.0205784)
(100.488 0.0857096 -0.0335849)
(100.707 0.108927 -0.0534509)
(100.989 0.129259 -0.0830448)
(101.328 0.134603 -0.124998)
(101.691 0.105592 -0.181594)
(102.005 0.0223548 -0.252919)
(102.17 -0.112057 -0.334688)
(102.111 -0.251255 -0.417769)
(101.852 -0.338445 -0.491583)
(101.511 -0.364609 -0.549281)
(101.198 -0.358162 -0.589641)
(100.957 -0.342897 -0.61607)
(100.778 -0.327679 -0.633188)
(100.644 -0.314634 -0.644398)
(100.542 -0.304479 -0.651919)
(100.464 -0.297559 -0.657186)
(100.402 -0.292978 -0.661224)
(100.35 -0.289844 -0.664508)
(100.303 -0.287574 -0.667271)
(100.256 -0.285759 -0.669336)
(100.208 -0.283976 -0.670382)
(100.156 -0.281821 -0.670037)
(100.099 -0.278952 -0.667882)
(100.037 -0.27507 -0.663491)
(99.9684 -0.269903 -0.656464)
(99.8956 -0.263219 -0.646466)
(99.8192 -0.25486 -0.633245)
(99.7408 -0.244739 -0.616616)
(99.6624 -0.232833 -0.596812)
(99.5862 -0.219262 -0.57379)
(99.5146 -0.204235 -0.54773)
(99.45 -0.188049 -0.518991)
(99.3944 -0.171146 -0.488016)
(99.3404 -0.154277 -0.455299)
(99.9943 0.00500263 0.0135122)
(99.9748 0.010071 0.0279089)
(99.9386 0.0154031 0.0445045)
(99.8849 0.0210524 0.0648225)
(99.8123 0.0267794 0.0905004)
(99.7188 0.0318605 0.123462)
(99.6035 0.0347446 0.165747)
(99.4687 0.0326496 0.219588)
(99.3227 0.0211688 0.286945)
(99.1834 -0.00557144 0.368603)
(99.0806 -0.0529086 0.463429)
(99.0509 -0.118139 0.56718)
(99.1167 -0.183888 0.672145)
(99.2681 -0.232031 0.769588)
(99.4637 -0.254109 0.851851)
(99.6594 -0.259792 0.916552)
(99.8319 -0.25705 0.965119)
(99.9753 -0.24982 1.00095)
(100.09 -0.240679 1.02753)
(100.179 -0.231953 1.04779)
(100.246 -0.224799 1.06384)
(100.296 -0.219409 1.07752)
(100.334 -0.215832 1.09024)
(100.365 -0.21442 1.10253)
(100.393 -0.215002 1.1141)
(100.422 -0.217009 1.12428)
(100.454 -0.219888 1.13221)
(100.492 -0.223097 1.1371)
(100.536 -0.226033 1.13813)
(100.587 -0.228078 1.13442)
(100.645 -0.228652 1.12508)
(100.708 -0.227257 1.10937)
(100.775 -0.223486 1.08677)
(100.844 -0.217074 1.05696)
(100.911 -0.207929 1.01989)
(100.973 -0.196173 0.975754)
(101.028 -0.18213 0.925088)
(101.072 -0.16627 0.86867)
(101.104 -0.149172 0.807469)
(101.124 -0.13141 0.74267)
(99.9945 0.0148577 0.0131946)
(99.9754 0.0300245 0.0272279)
(99.9397 0.0461573 0.0434714)
(99.8862 0.063542 0.0634567)
(99.8127 0.081666 0.0888793)
(99.7157 0.098646 0.121809)
(99.5926 0.110164 0.164613)
(99.4426 0.108024 0.219986)
(99.271 0.0785129 0.290551)
(99.0945 0.00218208 0.378051)