/*--------------------------------*- C++ -*----------------------------------*\
| =========                 |                                                 |
| \\      /  F ield         | OpenFOAM: The Open Source CFD Toolbox           |
|  \\    /   O peration     | Version:  2306                                  |
|   \\  /    A nd           | Website:  www.openfoam.com                      |
|    \\/     M anipulation  |                                                 |
\*---------------------------------------------------------------------------*/
FoamFile
{
    version     2.0;
    format      ascii;
    arch        "LSB;label=32;scalar=64";
    class       volVectorField;
    location    "0.6";
    object      Force;
}
// * * * * * * * * * * * * * * * * * * * * * * * * * * * * * * * * * * * * * //

dimensions      [1 1 -2 0 0 0 0];

internalField   uniform (0 0 0);

boundaryField
{
    walls
    {
        type            calculated;
        value           uniform (0 0 0);
    }
    inlet
    {
        type            calculated;
        value           uniform (0 0 0);
    }
    outlet
    {
        type            calculated;
        value           uniform (0 0 0);
    }
    NASA
    {
        type            calculated;
        value           nonuniform List<vector> 
14179
(
(-0.0146142 -0.134377 7.70399e-06)
(-0.0130738 -0.108053 5.50059e-06)
(-0.0665003 -0.537838 0.000752423)
(-0.102212 -0.822205 0.00295051)
(-0.0663185 -0.536776 0.000390148)
(-0.110614 -0.88973 0.00325005)
(0.226801 0.984907 -0.000349896)
(0.0938353 0.471012 -5.52023e-05)
(0.688166 3.37554 0.00389986)
(0.0982345 0.493144 -5.92354e-05)
(-0.000600778 -0.00814951 3.50206e-06)
(-0.0179492 -0.146906 0.000530061)
(0.129945 0.649111 -0.00214809)
(-0.0357085 -0.32478 0.00129227)
(0.0615882 0.307348 -0.000989668)
(1.37734 0.929104 0.0028275)
(1.39233 0.922772 -0.00036644)
(0.0222062 0.124527 -4.93257e-05)
(0.164542 0.976506 -0.000116615)
(1.25965 0.835002 -0.00297851)
(-0.017195 -0.240546 -6.28924e-06)
(-0.0214204 -0.199139 -0.000119275)
(-0.0196655 -0.272976 -0.000230723)
(-0.00874132 -0.0636454 3.3017e-06)
(-0.0132589 -0.109638 2.18644e-05)
(-0.00944503 -0.0687721 1.85885e-05)
(-0.0128936 -0.106219 0.000399762)
(-0.0151377 -0.108496 0.00042194)
(-0.0132275 -0.12085 0.000455241)
(-0.0154244 -0.211818 0.00381656)
(0.0468008 0.204384 1.27374e-05)
(0.0526277 0.248152 -9.21538e-07)
(0.0566057 0.266906 -8.75891e-05)
(0.0461628 0.201079 -2.15597e-05)
(0.0584259 0.21425 1.33637e-06)
(0.0625729 0.229431 8.868e-06)
(0.0292748 0.106176 1.03936e-06)
(0.0326352 0.118348 6.56288e-06)
(-0.00229983 -0.0109004 0.000155876)
(-0.0129309 -0.0629341 0.000704027)
(0.169746 0.619997 -0.00162218)
(0.0993612 0.358287 -0.000550431)
(0.101665 0.510325 -7.36566e-05)
(-0.00604618 -0.0424854 3.69423e-06)
(-0.00549836 -0.0386359 -8.94247e-07)
(0.160382 0.805631 -0.000117175)
(-0.00986756 -0.0682944 0.000298788)
(0.0965912 0.482312 -0.000969661)
(0.0898073 0.44886 -0.00102788)
(0.107538 0.439375 -0.000361977)
(0.0842992 0.313376 -2.13908e-05)
(0.0839473 0.312068 -5.16909e-05)
(-0.0615415 1.50205 -0.000149705)
(1.38772 0.922647 -0.000743533)
(-0.046048 1.12804 7.99374e-05)
(-0.0026381 1.29678 -0.000115188)
(0.067198 1.01705 2.41814e-05)
(0.0689718 1.04185 -0.000220069)
(-0.00229666 1.02155 -1.0665e-05)
(0.0914955 0.35953 -2.20812e-05)
(0.165885 0.983827 -0.000172663)
(0.00715217 0.0259796 2.1155e-05)
(-0.0227634 0.564907 -0.00119286)
(0.910481 0.621407 0.0752584)
(-0.000754193 0.530783 -0.00141315)
(0.0267474 0.406216 -0.000962498)
(0.126468 0.740361 0.00625932)
(-0.0147381 -0.147438 1.06298e-05)
(-0.0145562 -0.133929 1.46767e-05)
(-0.100616 -0.809474 0.00289979)
(-0.0115376 -0.0914777 5.37547e-06)
(-0.0130519 -0.107881 1.15815e-05)
(1.30801 0.866048 -0.00373027)
(1.25932 0.834071 -0.0033816)
(0.344582 2.04357 -0.0080434)
(0.259717 1.53476 -0.00551466)
(-0.111832 -0.900692 0.00180076)
(-0.0579187 -0.360457 0.0013524)
(-0.0567785 -0.35568 0.00135976)
(-0.0442948 -0.259771 0.00099722)
(0.156418 0.674816 -0.00256914)
(0.176135 0.761668 -0.0028364)
(0.761435 1.30733 -5.08742e-05)
(0.762012 1.30635 -0.000319783)
(0.0929438 0.466445 -5.57278e-05)
(0.0867201 0.416598 -3.73924e-05)
(-0.000350201 -0.00364906 -6.87501e-07)
(0.00138345 0.0069093 -2.02341e-07)
(0.00141702 0.00710063 -2.14293e-06)
(-0.000339807 -0.0035771 3.35019e-07)
(0.0975541 0.48971 -4.19362e-05)
(0.0922101 0.475601 -4.62525e-05)
(-0.0200912 -0.16425 0.000630845)
(-0.0136308 -0.0977029 0.000395688)
(-0.0204517 -0.146067 0.000559018)
(-0.0124612 -0.0859492 0.000370735)
(-0.0182421 -0.125144 0.000435428)
(0.0850826 0.424608 -0.00160846)
(-0.0200335 -0.182322 0.00068348)
(-0.0246797 -0.339237 0.00145922)
(-0.0207526 -0.291613 0.000501682)
(0.0798089 0.398662 -0.00148182)
(1.37458 0.923165 -0.00267334)
(0.100574 0.592882 -7.52729e-05)
(0.109284 0.611263 -3.18109e-05)
(0.110032 0.615089 -6.95021e-05)
(0.199593 1.38965 -0.000171557)
(0.109847 0.651547 -7.63634e-05)
(0.165301 0.980614 -0.000116597)
(0.021952 0.0207414 2.14153e-05)
(0.34486 -0.127084 0.0034589)
(0.361602 -0.143364 0.00170295)
(0.0167337 0.0160916 -4.43319e-05)
(-0.00727798 -0.0311016 0.00018418)
(0.0205749 0.0758258 -0.000228187)
(0.00152121 0.0049728 4.93351e-05)
(0.0203944 0.0820085 -0.000150227)
(-0.0099682 -0.0444523 0.000181603)
(-0.00258358 -0.0138905 0.000130688)
(0.00357095 0.0147536 -3.2758e-06)
(-0.0184715 -0.0893016 0.000333157)
(-0.00109534 0.728184 -0.00248521)
(0.0405108 0.605497 -0.00214609)
(-0.00159607 0.976461 -0.00339484)
(0.0315442 0.477826 -0.00200705)
(-0.0345591 0.863054 -0.00314105)
(1.08862 0.732354 -0.0029078)
(-0.0468338 1.15718 -0.00398708)
(0.108772 0.643843 -0.00330912)
(0.155801 0.6102 -0.00248353)
(0.116895 0.457196 -0.00162654)
(0.107908 0.393783 -0.00138083)
(0.152963 0.55892 -0.00196526)
(0.0629438 0.227131 -0.000794406)
(0.0859795 0.310793 -0.0011628)
(-0.0132873 -0.149681 2.35985e-06)
(-0.0170779 -0.238584 2.08159e-05)
(-0.0105841 -0.0815078 5.03841e-06)
(-0.00858882 -0.0625398 5.82759e-06)
(0.000526115 0.0013643 0.525098)
(-0.0129508 -0.101916 0.000389446)
(0.00049738 0.00130386 0.499358)
(-0.0143989 -0.109729 0.000428991)
(0.000802874 0.00162287 0.567991)
(-0.012938 -0.129211 0.000552394)
(0.00104324 0.00206289 0.569089)
(-0.0120293 -0.138609 0.00137469)
(0.0524235 0.247176 -3.63051e-05)
(0.0390983 0.177819 -1.10955e-05)
(0.0394139 0.179276 -2.67732e-05)
(0.0463851 0.202014 -2.18597e-05)
(0.045647 0.201056 -1.32561e-05)
(0.0458848 0.202119 -2.7542e-05)
(0.0586441 0.214963 7.47881e-06)
(0.0239793 0.119261 -1.69208e-05)
(0.0214306 0.108726 -1.54304e-05)
(0.029963 0.10863 7.60743e-06)
(0.0256533 0.0902242 2.4909e-07)
(-0.00667917 -0.0305345 0.00026558)
(-0.00562298 -0.0267515 0.000288366)
(0.000396835 0.00105848 0.316635)
(0.000397462 0.00101633 0.309691)
(0.000387561 0.00099451 0.305532)
(0.000314751 0.00100383 0.351682)
(0.0940212 0.320429 -0.000242006)
(0.160247 0.560401 0.00283846)
(-1.19285e-05 0.00104698 0.332112)
(0.000318345 0.000493441 0.301939)
(0.000121273 0.000359051 0.106388)
(0.0820812 0.288175 -0.000417975)
(0.284324 0.660524 -5.71623e-06)
(0.167278 0.58974 5.36206e-05)
(0.165599 0.583864 -4.35759e-05)
(0.0822853 0.384261 -2.41575e-05)
(0.0825225 0.385392 -3.814e-05)
(0.135388 0.646674 -4.86045e-05)
(0.0818082 0.364235 -2.89891e-05)
(0.0860048 0.390308 -1.96534e-05)
(0.0866273 0.393063 -3.49054e-05)
(0.0819296 0.364882 -1.24425e-05)
(-0.00486524 -0.0341842 2.29845e-06)
(-0.0059705 -0.0419583 2.76359e-06)
(0.146388 0.775511 -5.14017e-05)
(0.261028 0.45024 0.0101323)
(0.000985546 0.00395974 0.852016)
(0.000346082 0.00202331 0.407297)
(0.0476363 0.138566 -0.000140489)
(-0.0118898 -0.0741649 0.000369981)
(-0.011863 -0.0748949 0.000515359)
(0.000923345 0.00229734 0.668028)
(0.000320108 0.000539817 0.307124)
(0.095646 0.491025 -1.12464e-05)
(0.000503822 0.000552134 0.370222)
(0.139098 0.73125 0.00381269)
(0.000533066 0.00125715 0.343016)
(0.000385973 0.00105358 0.323978)
(-0.000335714 0.000774817 0.346572)
(6.98078e-05 0.000476609 0.111389)
(0.0800944 0.382678 -0.000906416)
(0.102646 0.476962 -8.33029e-05)
(0.000444353 0.000383021 0.203714)
(9.63193e-05 0.000568057 0.106758)
(0.16893 0.710072 0.000393584)
(0.0843232 0.313461 -2.95e-05)
(0.0803166 0.307458 -2.6713e-05)
(0.0957847 0.39048 -4.56658e-05)
(0.0672257 0.270766 -1.31109e-05)
(-0.812029 2.596 -0.0199135)
(-0.0507458 1.24233 -2.47657e-05)
(-0.159753 1.49315 0.000658404)
(0.0667867 1.0085 -0.000130169)
(0.0511397 1.09464 -6.15017e-05)
(-0.00236244 1.08414 -3.51117e-05)
(0.0288116 1.08975 -4.13691e-05)
(0.095776 1.0517 -9.67515e-05)
(0.130718 1.68881 -9.05188e-05)
(0.128524 1.65949 -0.000166333)
(0.0949487 1.04323 -6.78504e-05)
(0.105694 1.08013 -0.000111456)
(0.109118 1.01578 -1.10752e-05)
(0.114344 1.06449 -0.000138501)
(0.100961 1.03167 -1.19061e-05)
(0.0667749 0.276657 -1.07319e-05)
(0.0600179 0.238115 -8.77683e-06)
(0.0916716 0.360125 -4.45895e-06)
(0.126902 0.8597 -0.000134304)
(0.121125 0.762858 -8.84992e-05)
(-0.000362101 0.000970357 0.559096)
(0.000875294 0.00334988 0.880776)
(0.000788516 0.00224032 0.000135431)
(0.000350921 0.00356838 0.72892)
(0.00170946 0.00567571 0.000123355)
(0.000460541 0.0103353 0.272548)
(-0.0600844 0.576225 -0.00177375)
(0.00739971 -0.00105595 1.73775)
(0.000356063 0.000847168 0.301489)
(0.0140291 0.513573 -0.00142819)
(0.000739797 0.000346051 0.242918)
(0.0229962 0.481836 -0.00121736)
(0.0607169 0.522603 -0.00142695)
(0.0604707 0.513037 -0.00138084)
(0.000363172 0.000686533 0.24177)
(0.000391857 0.000751424 0.265999)
(0.0569131 0.52531 -0.00132695)
(0.0517192 0.521999 -0.00103038)
(0.0467925 0.51238 0.000289677)
(2.23731e-05 -0.000300084 0.22093)
(-0.0190797 -0.10476 0.00130195)
(0.000167235 0.00128164 0.495888)
(0.0910097 0.506235 -0.000981901)
(0.0003889 0.00102129 0.315108)
(0.000391677 0.0010266 0.316461)
(0.481984 -0.191998 -0.00376907)
(0.228027 0.215619 0.00194996)
(0.000184471 0.00019481 0.0796171)
(-0.052169 -0.513195 0.00124191)
(-0.0682619 -0.55162 0.00134274)
(-0.0548509 -0.539088 0.00165259)
(-0.0685959 -0.554275 0.00137754)
(-0.0740278 -0.597465 0.00184217)
(-0.0600624 -0.589675 0.00201083)
(-0.0847944 -0.683283 0.00234364)
(0.179177 0.775634 -0.00289004)
(0.447319 2.19074 -0.00794533)
(0.182847 0.791915 -0.00293908)
(0.426646 2.08896 -0.00760526)
(-0.0663601 -0.536989 0.000438958)
(-0.0439978 -0.274336 0.00100642)
(-0.106311 -0.854901 0.00308247)
(-0.0496344 -0.30906 0.00113876)
(1.39184 0.922503 -0.000854005)
(1.39316 0.92331 -0.000397343)
(0.241039 1.04675 -0.000501581)
(0.660985 3.24312 -0.00249985)
(0.622328 3.05401 -0.00146641)
(0.222909 0.9676 -0.000730062)
(0.448203 2.65804 -0.00124362)
(0.470847 2.79159 -0.0021938)
(-0.00102456 -0.00964711 8.2883e-06)
(-0.000639881 -0.007888 4.02605e-06)
(0.0222236 0.125733 -9.48248e-05)
(0.0225824 0.127243 -6.17916e-05)
(0.0461477 0.200103 -0.000611899)
(0.033371 0.151366 -0.000459432)
(0.0561782 0.244415 -0.000788513)
(0.0252549 0.113602 -0.000310912)
(-0.109686 -0.882871 0.00322424)
(-0.0701217 -0.509691 0.00186761)
(0.0136481 0.0630755 -0.000107336)
(-0.0129508 -0.0713271 0.000319823)
(0.0637949 0.232659 -0.000884377)
(0.0716677 0.261336 -0.000970049)
(0.0346869 0.125056 -0.000477389)
(0.0400596 0.144418 -0.000536708)
(0.309674 1.40131 -0.000537409)
(0.184768 0.801745 -0.000109547)
(0.347268 1.64241 -0.000674203)
(0.148085 0.743318 -0.000168623)
(-0.0189847 -0.159778 0.00018993)
(-0.0433484 -0.321313 0.000367628)
(-0.0070476 -0.0514905 -8.51937e-06)
(0.000274122 -0.00344036 1.71667e-06)
(-0.0187064 -0.128177 4.82984e-05)
(-0.0248516 -0.173732 0.00010345)
(0.0965991 0.394991 0.000110404)
(0.0836583 0.311031 -0.000117643)
(0.0838263 0.311628 -7.13612e-05)
(0.108025 0.443217 -0.00075187)
(0.164813 0.723976 -0.000263575)
(0.141378 0.651561 -0.000117601)
(0.172109 0.756628 -0.000283314)
(0.180991 0.844078 -0.000134812)
(-0.00284633 1.37304 -0.000149755)
(0.0664831 1.00191 -0.000380654)
(-0.00315741 1.47512 -0.000476928)
(0.068662 1.0355 -0.000192884)
(-0.0647267 1.5806 -0.000184187)
(1.39064 0.922909 -0.000427969)
(-0.0688756 1.68172 -0.000530251)
(0.427606 3.66658 -0.00205127)
(0.0960233 0.377392 -3.95905e-05)
(0.0924768 0.363362 -0.000117404)
(0.0669997 0.245627 -5.3542e-05)
(0.0650261 0.238481 -3.05998e-06)
(0.0566051 0.296728 -0.000151938)
(0.183328 0.904899 -0.00122149)
(0.021446 0.119406 -7.86095e-05)
(0.0469802 0.252073 -9.86338e-05)
(0.815044 5.10095 0.0018382)
(0.387174 2.58667 0.000209492)
(0.035363 0.128209 -2.57217e-05)
(0.0340368 0.123461 2.59002e-06)
(1.24116 0.824648 -0.00191205)
(0.0893926 0.619107 -0.00226919)
(0.250216 0.234717 -0.000820273)
(0.495553 -0.205453 0.000309184)
(0.236993 0.223007 -0.000859794)
(0.516995 -0.21471 5.76508e-05)
(0.0606636 0.222406 9.24575e-06)
(0.0285717 0.100461 7.73301e-06)
(0.0314437 0.114021 1.00953e-05)
(0.284399 0.660715 -2.56551e-05)
(0.274471 0.805725 -0.000101598)
(0.00080819 0.00258009 0.718984)
(0.000324959 0.00131631 0.358251)
(0.000500659 0.000571272 0.379384)
(-0.192013 1.77954 -0.000206169)
(-0.0567915 1.38788 -4.60834e-05)
(1.38351 0.923202 -0.00142505)
(0.0278452 0.0263185 2.75651e-05)
(0.360844 -0.148307 0.000137949)
(0.363608 -0.147829 0.000586864)
(0.0286765 0.0270669 1.85373e-05)
(0.000482771 0.00143116 0.537512)
(0.000378994 0.000733847 0.376279)
(0.000353527 0.000849725 0.338073)
(0.000551554 0.00129159 0.359187)
(-0.0920651 -0.74127 0.00261772)
(1.34272 0.889116 -0.00383558)
(1.32767 0.879123 -0.00379218)
(1.30454 0.863767 -0.00372139)
(1.3262 0.878146 -0.00378869)
(0.397042 1.94297 -0.00709558)
(0.17576 0.760246 -0.00283743)
(0.177838 0.769708 -0.0028697)
(0.418961 2.05116 -0.00747804)
(0.268852 1.58901 -0.00574766)
(0.287587 1.70004 -0.00610962)
(-0.026294 -0.155212 0.000584154)
(-0.0329951 -0.193989 0.000730583)
(-0.0568583 -0.353704 0.00131706)
(-0.0516217 -0.321303 0.00118715)
(-0.042476 -0.249011 0.000947215)
(-0.0354907 -0.208431 0.000786725)
(0.252269 2.14701 -0.00762989)
(0.23922 2.03518 -0.00732738)
(0.0237655 0.0876981 -0.000275243)
(0.0220072 0.0888441 -0.000308249)
(0.0333442 0.135505 -0.000244623)
(0.0317358 0.117355 -0.000394325)
(0.000789716 0.0021171 6.33885e-05)
(0.0235728 0.100408 -0.00021052)
(0.032825 0.141493 -0.000393444)
(0.0183019 0.080803 -0.000151363)
(0.0396372 0.14676 -0.000509319)
(0.0432346 0.176246 -0.000364671)
(0.0339832 0.12572 -0.000427431)
(0.0423939 0.633373 -0.00223188)
(-0.00168268 1.01985 -0.00354538)
(-0.00187947 1.12446 -0.00390669)
(0.0467294 0.698412 -0.00246567)
(-0.054217 1.3384 -0.00461745)
(1.29461 0.857154 -0.00368374)
(-0.0566941 1.39918 -0.00482981)
(-0.048671 1.20227 -0.00414601)
(-0.0530135 1.30888 -0.00451596)
(1.29091 0.854697 -0.00367334)
(-0.00193501 1.15291 -0.00400472)
(0.0510443 0.76402 -0.00268936)
(-0.00204422 1.20879 -0.00420049)
(0.0480509 0.718648 -0.00250835)
(0.225533 1.33331 -0.0046454)
(0.409267 2.54657 -0.0112587)
(0.236503 1.57586 -0.00568542)
(0.246267 1.45452 -0.00532503)
(0.403167 2.51501 -0.0089999)
(0.375772 2.34323 -0.00857171)
(0.195015 1.29692 -0.00582992)
(-0.081958 -0.60189 0.00176982)
(-0.102678 -0.826554 0.00307973)
(-0.0677027 -0.449532 0.0016637)
(-0.0579876 -0.361369 0.00137668)
(-0.0810288 -0.543399 0.0019158)
(-0.0541184 -0.338064 0.00131673)
(-0.0259519 -0.144227 0.000584487)
(-0.0460618 -0.270562 0.00106424)
(0.000447093 -0.00422485 0.000226379)
(-0.0486282 -0.286912 0.00113869)
(0.230572 1.03627 -0.00403144)
(0.179284 0.774847 -0.00286359)
(0.237785 1.12078 -0.00411717)
(0.177496 0.767358 -0.00284509)
(0.225284 1.01591 -0.00375413)
(0.240477 1.1326 -0.00455256)
(0.366796 1.79311 -0.00672398)
(0.105035 0.410728 -0.00147481)
(0.0893201 0.349198 -0.00128593)
(0.0950476 0.346752 -0.00123436)
(0.0753296 0.274696 -0.00100994)
(0.0868105 0.339419 -0.00126346)
(0.0809871 0.316718 -0.00119466)
(0.055301 0.19949 -0.000707401)
(0.0425766 0.153497 -0.000564392)
(0.118979 0.275811 -0.000958154)
(0.100499 0.232863 -0.000771407)
(-0.0207436 -0.157256 0.000611127)
(-0.0183409 -0.131202 0.000515068)
(0.0806741 0.412464 -0.00179538)
(0.085316 0.425958 -0.00152933)
(0.12321 0.650623 -0.00298055)
(-0.0191932 -0.189771 0.00064339)
(-0.0198586 -0.18113 0.000686089)
(-0.0170989 -0.188264 0.000392489)
(-0.0211097 -0.29292 0.00102523)
(0.0766535 0.366967 -0.00147656)
(0.0812077 0.405503 -0.00144559)
(-0.00491727 -0.0206201 0.000123631)
(0.0048764 0.0185545 4.38711e-05)
(-0.0016954 -0.00727979 9.23416e-05)
(0.011629 0.0425427 -8.27922e-05)
(0.0174993 0.643371 -0.00222383)
(-0.00131692 0.841932 -0.00293004)
(0.0266506 0.562712 -0.00202404)
(0.0358275 0.536609 -0.0019699)
(-0.104173 0.990066 -0.00479408)
(-0.0408573 1.01231 -0.00353947)
(1.20543 0.805098 -0.000356311)
(-0.449016 1.46121 -0.00461125)
(-0.0447111 1.10567 -0.00382688)
(-0.139183 1.29496 -0.00438575)
(-0.0123155 -0.0643221 0.000293752)
(-0.00927272 -0.0476509 0.000227869)
(-0.0110302 -0.056452 0.000264853)
(-0.0105539 -0.0553126 0.000257405)
(-0.0250639 -0.137583 0.000429399)
(0.000806555 0.00160232 0.382738)
(0.0580004 0.390363 -0.00141998)
(0.0912752 0.63229 -0.00240557)
(0.0599354 0.403099 -0.00152577)
(0.12556 0.458353 -0.00158746)
(0.153086 0.559131 -0.0019409)
(0.0725264 0.261796 -0.000903272)
(0.0617344 0.21601 -0.000754827)
(0.0811579 0.284497 -0.00117039)
(0.0888887 0.321064 -0.00112596)
(0.4526 -0.189121 -0.00251501)
(0.213622 0.196192 0.000164745)
(0.261394 0.243152 -0.000649887)
(0.52396 -0.21857 -0.000769536)
(0.221041 0.958553 -0.00345338)
(0.537179 2.63383 -0.00915641)
(0.203957 0.884778 -0.00306797)
(0.546834 2.68047 -0.00948831)
(-0.0664627 -0.537634 0.000623215)
(-0.00130835 -0.0113461 1.77814e-05)
(-0.00119313 -0.0106377 1.3775e-05)
(0.246173 1.06825 -0.00120444)
(0.653691 3.2066 -0.00463511)
(0.221282 0.960206 -0.00136446)
(-0.0623876 -0.453649 0.00163475)
(0.177399 0.780259 -0.000523116)
(0.144244 0.665855 -0.000512373)
(0.177665 0.781478 -0.00060354)
(0.14409 0.66508 -0.000449541)
(0.0598433 0.219286 -0.000185581)
(0.0653235 0.239488 -0.000169086)
(-0.0335344 -0.246037 0.000182032)
(0.163132 0.80758 -0.000619213)
(0.0640336 0.336825 -0.000257376)
(0.030997 0.112335 -9.77909e-05)
(0.0364065 0.132015 -9.58686e-05)
(1.39232 0.92286 -0.000335569)
(0.033692 0.0316907 2.26009e-06)
(0.353823 -0.146842 6.72946e-06)
(0.0341369 0.0321011 -4.77103e-06)
(0.354598 -0.147099 1.81244e-06)
(-0.0227457 -0.14342 0.000506761)
(-0.0254313 -0.159965 0.000570784)
(-0.0419593 -0.261779 0.000958934)
(-0.096678 -0.778063 0.00277188)
(-0.0370145 -0.23132 0.000842996)
(0.184671 0.799966 -0.00296588)
(0.196617 0.852486 -0.00314568)
(0.0988869 0.432824 -0.00151026)
(0.0737219 0.338401 -0.00117616)
(0.102463 0.448595 -0.00156867)
(0.070346 0.322764 -0.00111748)
(0.04029 0.183535 -0.000588935)
(0.064703 0.282052 -0.00093467)
(0.0715601 0.312308 -0.00105262)
(0.0461088 0.210531 -0.000695211)
(0.0583802 0.213592 -0.000840387)
(0.0566557 0.207146 -0.000814874)
(0.0620346 0.226266 -0.000865563)
(0.0582431 0.212534 -0.000824241)
(0.0117694 0.0597877 -0.000184731)
(0.0639585 0.313628 -0.00106973)
(-0.0696246 -0.505943 0.00184845)
(0.0210606 0.100192 -0.000260025)
(-0.00923295 -0.0514682 0.000237968)
(0.0280651 0.135145 -0.000398469)
(0.0317012 0.114709 -0.00045733)
(0.0302669 0.109435 -0.000436306)
(0.033488 0.120746 -0.000464462)
(0.0309437 0.111625 -0.000436824)
(1.30679 0.865232 -0.00372415)
(1.27312 0.842945 -0.00355088)
(0.12917 0.121684 -0.000504379)
(0.36214 -0.150346 0.000331421)
(0.372168 -0.154509 0.000342327)
(0.117052 0.110257 -0.000460845)
(0.472969 -0.196115 0.000382853)
(0.22043 0.207622 -0.00082587)
(0.20626 0.194341 -0.000779957)
(0.453484 -0.188142 0.000382275)
(6.37296e-05 -0.0140986 2.02006e-05)
(0.000119085 -0.00999736 2.04193e-05)
(-0.0517074 -0.508811 0.00102791)
(6.40538e-06 -0.0182516 4.53544e-05)
(-3.59866e-05 -0.0213854 4.32345e-05)
(-0.0671453 -0.542808 0.00110402)
(-0.0535418 -0.526417 0.00148691)
(-5.28215e-06 -0.0190269 6.12502e-05)
(-5.46317e-05 -0.0226577 6.61857e-05)
(-0.0707236 -0.571166 0.00160143)
(-0.0711741 -0.57475 0.00163319)
(-0.000248309 -0.0367906 0.000129189)
(-0.0578718 -0.568411 0.00187088)
(-0.000171541 -0.0312091 0.000107571)
(-0.0800011 -0.645076 0.00213559)
(1.36397 0.903309 -0.00379946)
(1.36136 0.901557 -0.00382839)
(1.35782 0.899184 -0.00384991)
(1.36317 0.902752 -0.00383756)
(0.202707 0.87922 -0.00318034)
(0.526972 2.58305 -0.00925376)
(0.541733 2.65545 -0.00942604)
(0.195126 0.846253 -0.00308601)
(0.180042 0.779502 -0.00290041)
(0.23684 1.06896 -0.00394129)
(0.267494 1.26212 -0.00460181)
(0.440775 2.15853 -0.00783821)
(0.181592 0.786346 -0.00292183)
(0.244353 1.10327 -0.00405168)
(0.256728 1.21098 -0.00443267)
(0.433204 2.12125 -0.00771968)
(1.38945 0.920871 -0.00168796)
(1.38949 0.920934 -0.00134594)
(1.39055 0.921641 -0.00092071)
(1.38932 0.920826 -0.00129257)
(0.481512 2.85444 -0.00252834)
(0.445393 2.63952 -0.00295272)
(-0.0010705 -0.00989697 9.34551e-06)
(-0.0664305 -0.537414 0.000576661)
(-0.00114347 -0.010332 1.25095e-05)
(0.0219409 0.124112 -0.000175934)
(0.0220863 0.124963 -0.000147783)
(0.0221858 0.125543 -0.000105637)
(0.0221419 0.125289 -0.000137668)
(0.211065 0.916076 -0.000762945)
(0.23801 1.03281 -0.00105968)
(0.639072 3.13492 -0.0033396)
(-0.0569371 -0.378334 0.00137329)
(-0.045784 -0.28534 0.0010481)
(-0.0658318 -0.478484 0.00173264)
(-0.0477831 -0.297653 0.00109509)
(-0.0615498 -0.408691 0.00149099)
(0.425472 3.64355 -0.00238551)
(0.410605 3.51467 -0.00190881)
(0.083624 0.310906 -0.000134723)
(0.108109 0.443598 0.000370508)
(0.108242 0.444164 -0.000838296)
(0.0835545 0.310668 -0.00018218)
(0.140502 0.647827 -0.00035264)
(0.175823 0.773149 -0.000367134)
(0.176947 0.778211 -0.00044721)
(0.143532 0.662327 -0.000386142)
(0.108234 0.444137 0.000280771)
(0.0834824 0.310421 -0.000245926)
(0.108224 0.444103 -0.000927332)
(0.0835223 0.310555 -0.000199988)
(0.0657707 0.991979 -0.000405512)
(-0.00318583 1.48302 -0.000559215)
(-0.00311142 1.43268 -0.000796831)
(0.0638694 0.9639 -0.000573222)
(-0.0665338 1.62283 -0.000963582)
(1.39268 0.923039 -0.00067209)
(-0.0598709 1.46008 -0.00109345)
(-0.0692254 1.6899 -0.000625533)
(-0.0679098 1.65667 -0.000890097)
(1.39323 0.92339 -0.000593324)
(-0.00302833 1.38921 -0.000846212)
(0.0590355 0.893606 -0.000675518)
(-0.00256166 1.15935 -0.000893818)
(0.063452 0.958306 -0.000610683)
(0.333181 1.50799 -0.000702705)
(0.241758 1.04972 -0.000610732)
(0.661984 3.24839 -0.00213144)
(0.381021 1.80156 -0.00138135)
(0.362168 1.71313 -0.000771186)
(0.65092 3.19433 -0.00185627)
(0.234849 1.01953 -0.000688879)
(0.325322 1.4718 -0.00111621)
(0.0895354 0.351806 -0.000141076)
(0.0790119 0.310465 -0.000194418)
(0.0676641 0.248038 -6.4553e-05)
(0.0662412 0.24289 -0.000135512)
(0.076889 0.302069 -0.000211447)
(0.709703 4.44115 -0.00240229)
(0.456033 2.70423 -0.00156265)
(0.707386 4.42799 -0.00252962)
(0.420657 2.81404 -0.00191639)
(0.421779 2.82106 -0.0015889)
(0.453902 2.69162 -0.00178911)
(-0.0316777 -0.233119 0.000116173)
(-0.0200055 -0.13549 0.000102036)
(-0.000935719 -0.00918222 6.91719e-06)
(-0.0192851 -0.131367 6.60719e-05)
(-0.000918854 -0.00926163 6.18186e-06)
(0.0632148 0.331968 -0.000158939)
(0.160591 0.794115 -0.000380646)
(0.162989 0.806529 -0.000466433)
(0.0482721 0.260141 -0.00019804)
(0.0222801 0.125987 -8.37535e-05)
(0.0481952 0.259197 -0.000126656)
(0.0222861 0.125853 -7.17835e-05)
(0.0359302 0.130254 -3.07058e-05)
(0.0371369 0.134686 -7.42998e-05)
(0.0659663 0.240561 -0.000908526)
(0.0684018 0.249425 -0.000934724)
(0.032138 0.112337 -0.00043007)
(0.0361669 0.130385 -0.000493855)
(0.0380092 0.132863 -0.000493277)
(0.0378432 0.136423 -0.000512068)
(0.274582 0.80619 -0.000285439)
(0.274554 0.805996 -0.000174437)
(0.28547 0.663332 -0.000184835)
(0.285288 0.662888 -0.000155071)
(-0.198154 1.83609 -0.000262807)
(-0.066788 1.6319 -0.000341821)
(1.39148 0.922668 -0.00034609)
(-0.872355 2.83681 -0.000758217)
(-0.0680855 1.66304 -0.000439455)
(-0.206849 1.91515 -0.000577796)
(0.0666486 0.244392 -3.89834e-05)
(0.0665476 0.244087 -1.90823e-05)
(0.0351205 0.12736 -1.70669e-05)
(0.0309577 0.108826 -2.01091e-05)
(0.0296743 0.104355 4.99984e-06)
(0.0348596 0.126452 -6.5486e-06)
(0.42668 2.52557 -0.00891893)
(0.384829 2.27752 -0.00810834)
(-0.00190581 -0.0140615 6.20596e-05)
(-0.004947 -0.0316667 0.000125562)
(-0.0298076 -0.186925 0.000674432)
(-0.0265789 -0.167035 0.000597573)
(-0.00993757 -0.0605526 0.000231602)
(-0.0062737 -0.0393464 0.000153265)
(1.34153 0.888338 -0.00383167)
(1.35175 0.895134 -0.00385233)
(1.35889 0.899891 -0.00385482)
(1.3524 0.895568 -0.00385225)
(-0.0238798 -0.14124 0.000531964)
(-0.0181992 -0.108366 0.000408715)
(0.347314 2.05447 -0.00732251)
(0.373464 2.21003 -0.00787648)
(-0.0952849 -0.766952 0.00272672)
(-0.0312341 -0.195712 0.000707573)
(-0.0352878 -0.220684 0.000802873)
(-0.0115882 -0.0701065 0.000266588)
(-0.0161865 -0.096719 0.000365574)
(0.199939 0.866978 -0.00317829)
(0.517024 2.53419 -0.00911497)
(0.19459 0.843873 -0.00308073)
(0.479889 2.35142 -0.00850438)
(0.281701 2.39842 -0.00853835)
(0.289974 2.46927 -0.00879894)
(0.0635744 0.259904 -0.000577938)
(0.0516872 0.191611 -0.00067995)
(0.0544978 0.202072 -0.000718996)
(0.0596636 0.243819 -0.00116267)
(0.0939203 0.410924 -0.00142833)
(0.0618236 0.283308 -0.0009708)
(0.0895162 0.391506 -0.00135451)
(0.0658656 0.302018 -0.00104141)
(0.0578005 0.214366 -0.000764523)
(0.0554343 0.205558 -0.000732282)
(0.068347 0.279537 -0.000625857)
(-0.0023663 1.36914 -0.00475346)
(0.0572642 0.857666 -0.0030135)
(0.0585437 0.876944 -0.00307908)
(-0.00231184 1.34273 -0.00466319)
(-0.0638433 1.57436 -0.0054294)
(1.33853 0.886332 -0.00382362)
(-0.0645431 1.59138 -0.00548614)
(-0.00238516 1.37817 -0.00478249)
(0.0599566 0.898271 -0.00314994)
(-0.00241606 1.3905 -0.00482288)
(0.0589644 0.883288 -0.00310038)
(-0.0634189 1.56398 -0.00539594)
(1.33538 0.884241 -0.00381462)
(-0.0622403 1.53513 -0.00529753)
(0.315245 2.68522 -0.0095176)
(0.30949 2.63599 -0.0093527)
(0.0414168 0.153386 -0.000534976)
(0.0456604 0.16918 -0.000595185)
(0.0532154 0.217299 -0.00102812)
(0.0504843 0.187134 -0.000663153)
(0.0578684 0.236435 -0.000519852)
(0.0470905 0.174502 -0.000615187)
(0.0781563 0.341403 -0.00116505)
(0.0564888 0.258611 -0.000878399)
(0.0833485 0.364307 -0.00125246)
(0.0517875 0.23684 -0.000795485)
(-0.057364 1.41554 -0.0048878)
(-0.0596122 1.47076 -0.00507598)
(1.31511 0.870783 -0.00375384)
(0.0518813 0.776651 -0.00273446)
(-0.00207881 1.2247 -0.00425723)
(-0.00218434 1.27986 -0.00444613)
(0.0542053 0.811598 -0.0028554)
(-0.00221641 1.29594 -0.00450184)
(0.0567118 0.849325 -0.00298557)
(0.0549942 0.823471 -0.00289553)
(-0.00228712 1.3313 -0.00462539)
(-0.0602705 1.4869 -0.00513168)
(1.31882 0.873241 -0.00376412)
(-0.0617631 1.52347 -0.00525937)
(0.0759052 0.29737 -0.00113748)
(0.0760341 0.297742 -0.00113972)
(0.056004 0.204578 -0.000802974)
(0.056263 0.205664 -0.000809053)
(0.0764247 0.299586 -0.00114445)
(0.240952 1.136 -0.00417649)
(0.404154 1.97813 -0.0072494)
(0.22665 1.02229 -0.00378139)
(0.1759 0.761026 -0.00284736)
(0.17698 0.76586 -0.00286053)
(0.233907 1.05558 -0.00389599)
(0.412152 2.01761 -0.00735932)
(0.252558 1.19119 -0.00436663)
(0.077283 0.302395 -0.001153)
(0.0769287 0.301058 -0.00114953)
(0.0760204 0.297641 -0.00113917)
(0.0560474 0.20469 -0.000802566)
(0.0574656 0.209737 -0.000816279)
(0.26234 1.74816 -0.00627122)
(0.417921 2.60746 -0.00937834)
(0.274976 1.62525 -0.00585627)
(0.281621 1.66467 -0.00599484)
(0.448547 2.79901 -0.010035)
(0.438871 2.73857 -0.00982979)
(0.269044 1.79298 -0.00641642)
(-0.00391608 -0.0240214 0.000116335)
(-0.0283604 -0.167171 0.000628985)
(0.0477323 0.23298 -0.000769791)
(0.00375421 0.0173834 -2.65367e-05)
(-0.0307739 -0.181137 0.000681698)
(-0.0115067 -0.065299 0.000271189)
(-0.0670008 -0.444705 0.00163849)
(-0.0551793 -0.343266 0.00127451)
(-0.0669531 -0.48656 0.00176612)
(-0.0534577 -0.332622 0.00123039)
(-0.0631041 -0.418929 0.00153226)
(0.459707 2.86885 -0.0102742)
(0.46889 2.92632 -0.0104671)
(0.292237 1.94808 -0.00694175)
(0.286367 1.90882 -0.00680919)
(-0.0231696 -0.128879 0.000517648)
(-0.0401365 -0.235372 0.000891062)
(0.0411519 0.200268 -0.000646589)
(0.000487392 9.7521e-05 3.83496e-05)
(0.0349615 0.169479 -0.000531007)
(-0.0377936 -0.221773 0.000837134)
(-0.0144894 -0.0815219 0.000332637)
(0.029542 0.106698 -0.000424163)
(0.0299257 0.108172 -0.000431261)
(0.029548 0.106691 -0.000423487)
(0.0304188 0.109755 -0.000431461)
(0.115156 0.337176 -0.00117123)
(0.140731 0.412279 -0.00146672)
(0.188008 0.436162 -0.00160424)
(0.182704 0.423845 -0.00155709)
(0.155529 0.360748 -0.00131351)
(0.163605 0.379509 -0.00138951)
(0.147652 0.432611 -0.00154594)
(-0.592677 1.93015 -0.00636235)
(1.30128 0.861577 -0.00370347)
(-0.0559704 1.38144 -0.00476786)
(-0.166931 1.55219 -0.00529819)
(-0.565341 1.8413 -0.00612902)
(-0.496489 1.61648 -0.00523406)
(-0.514328 1.6749 -0.00552646)
(-0.144391 1.34335 -0.00458153)
(-0.050175 1.23921 -0.00427143)
(1.28352 0.849778 -0.00362756)
(-0.548281 1.78588 -0.00589194)
(0.0872935 0.31839 -0.00114164)
(0.0804861 0.29354 -0.0010689)
(0.142532 0.134285 -0.00055228)
(0.397859 -0.165176 0.000369476)
(0.384334 -0.159559 0.000355433)
(0.156359 0.147323 -0.000599818)
(0.0540688 0.18913 -0.000667994)
(0.0504414 0.181905 -0.000650142)
(0.0459414 0.165652 -0.00060225)
(0.0407371 0.142406 -0.000522298)
(0.18753 0.176711 -0.00071214)
(0.414515 -0.172081 0.000375913)
(0.432131 -0.179357 0.000384258)
(0.172145 0.16221 -0.000654601)
(0.625163 3.06626 -0.00466055)
(0.21354 0.926542 -0.00137511)
(0.254395 1.10359 -0.00185386)
(0.623495 3.05767 -0.00518154)
(0.222144 0.963496 -0.00261886)
(0.661391 3.24351 -0.00812362)
(0.245491 1.065 -0.00270482)
(0.667812 3.27449 -0.00883612)
(0.236097 1.02399 -0.00331863)
(0.66927 3.28124 -0.010354)
(0.231411 1.00362 -0.00319554)
(0.613321 3.00677 -0.00974874)
(-0.0664966 -0.53784 0.000710906)
(-0.0337036 -0.247074 0.000348905)
(-0.0486658 -0.354712 0.00122662)
(-0.0610851 -0.444257 0.00159812)
(-0.099317 -0.799113 0.0028571)
(-0.0519485 -0.511095 0.00115352)
(-0.0051767 -0.156762 0.000378063)
(-0.00517765 -0.15682 0.00034618)
(0.0001682 -0.00636318 1.70903e-05)
(0.000114316 -0.0103408 2.18206e-05)
(-0.00141386 -0.0119963 1.96581e-05)
(-0.0666715 -0.539126 0.000914254)