/*--------------------------------*- C++ -*----------------------------------*\
| =========                 |                                                 |
| \\      /  F ield         | OpenFOAM: The Open Source CFD Toolbox           |
|  \\    /   O peration     | Version:  2306                                  |
|   \\  /    A nd           | Website:  www.openfoam.com                      |
|    \\/     M anipulation  |                                                 |
\*---------------------------------------------------------------------------*/
FoamFile
{
    version     2.0;
    format      ascii;
    arch        "LSB;label=32;scalar=64";
    class       volScalarField;
    location    "0.6";
    object      p;
}
// * * * * * * * * * * * * * * * * * * * * * * * * * * * * * * * * * * * * * //

dimensions      [0 2 -2 0 0 0 0];

internalField   nonuniform List<scalar> 
111542
(
59.645
60.9904
64.1802
69.3804
76.6721
86.2711
98.3381
112.899
129.448
146.541
161.593
170.576
169.452
157.074
136.564
113.646
92.2395
73.771
58.3584
45.8779
35.9802
28.3623
22.6357
18.2847
14.9742
12.4336
10.3862
8.79741
7.61351
6.70404
5.98353
5.39357
4.94431
4.56343
4.19786
3.80467
3.32991
2.76845
2.02003
0.995521
58.5962
59.9026
63.0607
68.1996
75.4819
85.2279
97.81
113.475
132.044
152.422
171.871
184.827
183.698
167.246
141.367
114.703
91.3288
71.8301
55.97
43.4211
33.7533
26.4601
21.0048
16.9877
13.9667
11.6201
9.77952
8.3592
7.26839
6.41273
5.72712
5.17027
4.71616
4.32333
3.95092
3.56026
3.10761
2.54786
1.81184
0.844909
56.5189
57.7589
60.7744
65.7288
72.8945
82.7846
96.1112
113.678
136.137
163.309
191.817
212.979
212.613
186.851
150.574
117.532
90.4445
68.8686
52.0928
39.3501
29.9064
23.293
18.576
15.0821
12.2073
9.86554
8.09804
6.81052
5.86016
5.1438
4.59902
4.18198
3.85551
3.58452
3.33268
3.06243
2.7294
2.27759
1.63571
0.731521
53.4644
54.5766
57.2953
61.8292
68.5623
78.2244
91.9654
111.482
139.178
178.287
213.321
255.691
260.835
219.447
167.017
126.744
94.0375
69.0647
50.6544
37.1854
23.3198
17.1383
14.8899
13.5282
11.5149
9.43073
7.76987
6.51679
5.53746
4.75671
4.13866
3.65189
3.26536
2.94734
2.66798
2.39454
2.08217
1.66916
1.06454
0.158309
49.542
50.443
52.658
56.4111
62.1393
70.6896
83.5077
103.017
133.243
178.063
254.958
340.869
363.83
254.917
170.016
122.247
83.4438
56.9463
39.3019
27.8531
20.1631
5.63293
5.09714
5.7418
5.1305
4.34718
3.79856
3.39452
3.05798
2.78113
2.56398
2.39513
2.26174
2.14797
2.04085
1.92415
1.76658
1.51413
1.04934
0.0824002
44.9471
45.5457
47.0271
49.5743
53.56
59.7194
69.3825
85.0037
111.348
166.064
259.722
454.296
618.033
242.418
168.548
113.204
66.9385
40.7631
25.1941
15.7481
11.7636
14.3899
13.461
8.4673
5.11401
3.53205
2.68068
2.06484
1.59491
1.26275
1.0411
0.896273
0.804108
0.747124
0.712391
0.687774
0.65744
0.608017
0.54425
0.587669
39.9732
40.1964
40.7542
41.7296
43.2996
45.801
49.8148
56.3227
67.019
106.38
182.099
412.861
1948.89
-429.341
197.958
78.9549
32.5146
16.8996
8.05014
-2.35704
-9.5574
15.2927
14.8595
9.11142
5.60519
4.19565
3.514
3.00498
2.60615
2.32441
2.13406
2.00147
1.90539
1.83139
1.77031
1.71468
1.65017
1.56901
1.46929
1.39747
34.9859
34.8089
34.3629
33.609
32.4746
30.7832
28.1262
23.551
14.6656
16.8066
-0.190546
-160.759
-993.303
-1047.03
-313.594
-100.936
-45.6591
-25.496
-16.5683
-10.3521
-2.64531
-7.60745
-5.88364
-4.37914
-3.54141
-2.64212
-1.75774
-1.04546
-0.495434
-0.0513428
0.318275
0.626175
0.881069
1.08895
1.25312
1.37176
1.42933
1.39508
1.2052
0.74248
30.3977
29.8455
28.4541
26.0856
22.4662
17.0353
8.76776
-4.23282
-25.5915
-48.9916
-122.739
-267.13
-476.523
-505.239
-319.979
-174.842
-100.192
-60.9796
-39.041
-25.1044
-14.9996
-8.42674
-4.51488
-1.70692
-0.00221557
1.05764
1.80693
2.34026
2.70064
2.93799
3.09223
3.18669
3.23361
3.23846
3.20031
3.11183
2.94937
2.66583
2.16972
1.27829
26.5985
25.7266
23.5675
19.9102
14.3681
6.21336
-5.76103
-23.5244
-50.3521
-91.8354
-149.819
-222.619
-287.84
-295.76
-238.134
-165.145
-109.987
-74.5682
-51.5631
-35.5967
-24.2791
-16.7662
-11.7602
-8.17479
-5.61278
-3.77404
-2.38554
-1.30215
-0.455894
0.204502
0.723305
1.13237
1.45078
1.68827
1.8448
1.91454
1.87561
1.68715
1.29116
0.642802
23.8928
22.8024
20.1121
15.5887
8.80524
-0.967125
-14.8331
-34.2816
-61.1686
-97.3336
-142.69
-191.971
-230.436
-237.442
-207.023
-158.339
-114.091
-81.7585
-59.0042
-42.3883
-30.0236
-20.9684
-14.3293
-9.44693
-5.8672
-3.25461
-1.33504
0.08624
1.13566
1.90266
2.45619
2.84717
3.10967
3.26287
3.3063
3.25128
3.07523
2.73268
2.15209
1.20304
22.4871
21.294
18.3241
13.3929
6.00034
-4.48879
-19.0925
-38.951
-65.2109
-98.2035
-136.39
-174.329
-202.07
-208.125
-188.441
-152.593
-115.279
-84.9383
-62.3329
-45.4187
-32.6183
-23.0435
-16.0088
-10.878
-7.17706
-4.49098
-2.52387
-1.06899
0.0144163
0.822535
1.42434
1.86901
2.1906
2.41299
2.48262
2.47558
2.35121
2.06017
1.55299
0.775889
59.0387
60.3343
63.451
68.4867
75.5401
84.8202
96.5203
110.623
126.629
143.182
157.768
166.436
165.203
153.102
133.157
110.884
90.1197
72.1646
57.1549
44.9636
35.3283
27.8893
22.2373
17.9623
14.6969
12.1511
10.1415
8.58639
7.40734
6.50737
5.80935
5.26032
4.82622
4.46014
4.11772
3.75762
3.33483
2.80076
2.07485
1.05405
58.0023
59.275
62.3412
67.3178
74.3662
83.7995
95.9848
111.157
129.149
148.924
167.818
180.468
179.074
162.94
137.759
111.881
89.197
70.2357
54.7864
42.5597
33.1598
26.0249
20.6464
16.6735
13.6767
11.3377
9.50884
8.10274
7.02623
6.19067
5.53192
5.00626
4.57954
4.21417
3.87345
3.51944
3.10968
2.59002
1.88821
0.92289
55.9564
57.1671
60.0903
64.8856
71.8192
81.3902
94.293
111.315
133.105
159.514
187.243
207.748
207.408
182.143
146.788
114.699
88.3751
67.3632
51.0108
38.6326
29.5969
23.1251
18.3572
14.8067
11.9228
9.59837
7.85854
6.60465
5.69035
5.00947
4.49833
4.11196
3.81287
3.56675
3.34101
3.10065
2.80409
2.3925
1.78153
0.852914
52.9507
54.0372
56.6697
61.0524
67.5609
76.9064
90.2117
109.143
136.079
174.251
209.747
251.458
256.36
215.292
163.923
124.455
92.3558
67.8199
49.734
36.5654
23.1629
17.4005
14.8025
13.0892
10.9073
8.78865
7.16665
5.98583
5.08882
4.38887
3.84493
3.42281
3.09215
2.82329
2.59017
2.36482
2.10849
1.75893
1.21008
0.283098
49.0938
49.9738
52.114
55.7334
61.2607
69.5227
81.9368
100.891
130.38
175.248
251.289
336.272
358.561
250.539
167.514
120.445
82.106
55.9283
38.5298
27.3466
20.1767
6.6033
5.73823
5.97007
5.09737
4.18656
3.60252
3.20478
2.88382
2.61929
2.40869
2.24092
2.10642
1.99324
1.89225
1.79338
1.67414
1.48323
1.09281
0.147847
44.5797
45.1621
46.5867
49.0299
52.8587
58.7941
68.1463
83.3482
109.151
163.838
257.302
450.628
613.231
239.863
167.135
112.218
66.1631
40.3058
25.0108
15.7732
12.5885
10.8302
10.5563
6.41859
3.59467
2.37787
1.81498
1.42541
1.12327
0.908738
0.766009
0.671731
0.612283
0.578492
0.566143
0.572279
0.594057
0.629994
0.689292
0.848959
39.6995
39.9114
40.4351
41.3461
42.8216
45.1956
49.0472
55.3698
65.9047
105.235
180.934
411.022
1937.93
178.815
79.4292
31.7092
15.9775
7.53058
-2.15212
-7.07686
15.4445
14.5305
8.80701
5.43821
4.06629
3.34366
2.76486
2.28976
1.93219
1.67125
1.47769
1.33458
1.22962
1.15714
1.11352
1.09426
1.09777
1.1282
1.21938
34.7886
34.6296
34.1731
33.3973
32.2391
30.5308
27.8824
23.3864
14.7451
16.9467
0.325432
-159.077
-985.266
-1027.45
-307.111
-98.7495
-44.7061
-25.3566
-16.7468
-10.6279
-3.66411
-8.67656
-7.00683
-5.34489
-4.23087
-3.12923
-2.13765
-1.367
-0.780059
-0.312699
0.0706066
0.386859
0.64884
0.865082
1.04366
1.18816
1.29078
1.32441
1.21929
0.804087
30.3028
29.768
28.3837
26.0359
22.459
17.1102
8.99863
-3.7147
-24.5632
-47.8843
-120.337
-263.037
-470.148
-495.45
-313.769
-171.072
-98.0049
-59.8564
-38.5378
-24.989
-15.2706
-9.24875
-5.27712
-2.29967
-0.434705
0.720626
1.50358
2.03517
2.37622
2.58504
2.7073
2.77127
2.79303
2.78113
2.73816
2.66057
2.52893
2.2993
1.88308
1.10654
26.5791
25.7189
23.6019
19.9996
14.5504
6.5522
-5.1666
-22.5177
-48.692
-89.183
-145.828
-217.002
-280.913
-288.213
-231.631
-160.561
-107.178
-73.0132
-50.7853
-35.3178
-24.3656
-17.1619
-12.2047
-8.58383
-5.99033
-4.13062
-2.7275
-1.6354
-0.786391
-0.128005
0.386373
0.790661
1.106
1.34393
1.50778
1.59381
1.58331
1.43856
1.10579
0.54748
23.9343
22.8669
20.2217
15.7744
9.12196
-0.44986
-14.0104
-33.0067
-59.2403
-94.5123
-138.735
-186.748
-224.246
-231.108
-201.397
-154.15
-111.333
-80.0989
-58.077
-41.9486
-29.9273
-21.1149
-14.5997
-9.77519
-6.22309
-3.62199
-1.70539
-0.285598
0.759572
1.51888
2.06258
2.44323
2.69645
2.84385
2.89357
2.8487
2.69231
2.38551
1.8658
1.02938
22.5646
21.379
18.479
13.618
6.38997
-3.88396
-18.1627
-37.5665
-63.1663
-95.3585
-132.594
-169.568
-196.607
-202.611
-183.563
-148.712
-112.547
-83.2116
-61.317
-44.8894
-32.4206
-23.0766
-16.1924
-11.1621
-7.49788
-4.82637
-2.86675
-1.41577
-0.335322
0.469179
1.0664
1.50573
1.82041
2.02868
2.12954
2.13433
2.02444
1.76349
1.31174
0.646568
57.9036
59.1276
62.0619
66.7842
73.3895
82.0739
93.0188
106.194
121.126
136.558
150.094
158.024
156.665
145.092
126.21
105.222
85.6731
68.7208
54.4976
42.909
33.7316
26.6025
21.1434
17.017
13.8793
11.4377
9.51806
8.02454
6.87699
5.99463
5.30877
4.76844
4.33428
3.97043
3.64098
3.30817
2.92955
2.45244
1.80747
0.907873
56.8949
58.0999
60.9822
65.6459
72.2431
81.0662
92.4561
106.628
123.428
141.889
159.533
171.105
169.649
154.232
130.416
106.079
84.7383
66.8289
52.1853
40.5776
31.6399
24.7604
19.5478
15.7516
12.9232
10.7032
8.94217
7.56499
6.4932
5.652
4.98517
4.45237
4.01994
3.65624
3.33009
3.00753
2.64856
2.20036
1.59491
0.761211
54.9074
56.0543
58.7972
63.2833
69.763
78.7025
90.7515
106.652
127.033
151.786
177.815
197.17
196.397
172.175
138.795
108.673
83.8934
64.0152
48.5029
36.7818
28.3169
22.0113
17.2932
13.904
11.236
9.07632
7.42233
6.1977
5.28082
4.58137
4.04564
3.63538
3.31753
3.06377
2.84632
2.63636
2.39663
2.07204
1.5751
0.77156
51.9922
53.0198
55.4828
59.5702
65.6362
74.3478
86.7624
104.463
129.744
165.783
200.836
240.818
245.107
205.202
156.239
118.846
88.2156
64.7296
47.4025
34.8079
21.501
16.0746
13.8324
12.2742
10.0999
7.92973
6.23511
4.97912
4.01628
3.26644
2.6904
2.25479
1.92864
1.68352
1.49635
1.345
1.19891
1.00484
0.663309
7.99816e-05
48.2571
49.0872
51.0789
54.4355
59.5631
67.2418
78.8162
96.5741
124.4
168.251
241.752
324.115
344.962
239.465
160.888
115.941
78.6781
53.1878
36.2791
25.4064
18.2618
3.46178
4.3595
5.60755
4.9036
3.84915
3.07423
2.49837
2.02324
1.63504
1.33328
1.10684
0.944901
0.833145
0.765151
0.736454
0.740113
0.745069
0.645166
0.0713441
43.8858
44.4383
45.7488
47.985
51.4992
56.9764
65.6719
79.9407
104.46
158.082
250.053
440.105
597.883
230.252
167.118
111.4
64.9668
38.6604
23.184
13.8265
7.65928
5.264
5.81245
2.28065
-0.439119
-1.72048
-2.30052
-2.63966
-2.85125
-2.95311
-2.97002
-2.93419
-2.85215
-2.73637
-2.58579
-2.39184
-2.1332
-1.77139
-1.22057
-0.216056
39.1721
39.3697
39.8229
40.605
41.8903
44.001
47.4999
53.3882
63.4808
102.293
177.767
408.757
1913.24
217.018
77.5842
31.3417
15.1286
6.21514
-3.22494
-5.80212
14.2353
12.1391
5.69731
2.15946
0.795205
0.149581
-0.302224
-0.628406
-0.838634
-0.963229
-1.03277
-1.06327
-1.05714
-1.01123
-0.914424
-0.745768
-0.475732
-0.0540235
0.575004
34.4402
34.2767
33.7996
32.984
31.7772
30.0279
27.3845
23.0284
14.8688
17.3663
2.2872
-150.895
-968.766
-1011.19
-293.23
-92.088
-41.9536
-24.6561
-16.9829
-11.2415
-3.74068
-8.5101
-8.13136
-7.2594
-6.23272
-5.01996
-3.90164
-3.00205
-2.2906
-1.71459
-1.23983
-0.845935
-0.516947
-0.23821
0.0110258
0.245016
0.474156
0.687766
0.82385
0.656807
30.1174
29.5907
28.239
25.935
22.4406
17.253
9.45073
-2.68136
-22.4548
-44.9578
-114.133
-251.677
-452.469
-476.508
-298.99
-161.818
-92.9984
-57.4523
-37.562
-24.793
-15.525
-10.0287
-6.43034
-3.65139
-1.8389
-0.681504
0.131691
0.714734
1.11821
1.39107
1.57635
1.70112
1.78253
1.83083
1.85691
1.86391
1.84317
1.76174
1.53528
0.97073
26.5382
25.711
23.6495
20.1568
14.8925
7.20196
-4.00813
-20.5245
-45.3454
-83.6921
-137.381
-204.965
-265.813
-272.695
-218.801
-151.695
-101.78
-69.9851
-49.2102
-34.6649
-24.3646
-17.6907
-12.8017
-9.21333
-6.70953
-4.92116
-3.53772
-2.42827
-1.54407
-0.843537
-0.284326
0.164733
0.524992
0.806947
1.02073
1.16662
1.23261
1.18765
0.977652
0.538231
23.9982
22.9634
20.4092
16.1169
9.7159
0.537208
-12.4169
-30.4998
-55.3997
-88.8164
-130.68
-176.136
-211.739
-218.344
-190.335
-145.896
-105.831
-76.6678
-56.0308
-40.8348
-29.4722
-21.1136
-14.818
-10.1393
-6.72117
-4.22154
-2.3621
-0.965233
0.0778858
0.847834
1.41065
1.8163
2.09966
2.2821
2.37664
2.38514
2.29551
2.07585
1.66744
0.9588
22.6872
21.542
18.7403
14.0535
7.11114
-2.73124
-16.3634
-34.8346
-59.1382
-89.6535
-124.911
-159.912
-185.558
-191.396
-173.613
-140.954
-107.1
-79.6526
-59.0972
-43.5959
-31.7808
-22.8912
-16.2913
-11.428
-7.86976
-5.27522
-3.36707
-1.94226
-0.868503
-0.0575009
0.554858
1.01543
1.35609
1.59496
1.74037
1.79174
1.73728
1.54951
1.1911
0.626272
56.3418
57.4623
60.1308
64.4112
70.3838
78.2169
88.0616
99.8734
113.211
126.928
138.849
145.628
144.054
133.267
115.982
96.908
79.1491
63.6799
50.6286
39.9449
31.4435
24.7695
19.5645
15.5673
12.5253
10.1841
8.3655
6.96184
5.89013
5.07391
4.44743
3.96021
3.57405
3.25694
2.97826
2.70587
2.40276
2.02221
1.50291
0.767821
55.3712
56.4749
59.0926
63.3126
69.2672
77.2107
87.4365
100.121
115.112
131.531
147.173
157.043
155.416
141.133
119.439
97.4397
78.1191
61.7999
48.3836
37.7172
29.471
22.9482
17.8676
14.1511
11.4303
9.332
7.68094
6.39715
5.40741
4.64146
4.04444
3.57547
3.2019
2.89526
2.62945
2.37705
2.10491
1.76785
1.30452
0.642422
53.4623
54.5117
56.9952
61.04
66.8667
74.8859
85.6672
99.8635
118.033
140.091
163.26
180.428
178.993
156.572
126.39
99.3666
77.0135
58.9376
44.7678
34.0882
26.4959
20.2723
15.223
11.7649
9.32577
7.45475
6.0298
4.97428
4.18937
3.59571
3.14454
2.80273
2.54307
2.34135
2.17919
2.03725
1.89063
1.69503
1.36725
0.742828
50.6715
51.6063
53.8241
57.4868
62.9093
70.6827
81.7454
97.5121
120.073
152.389
185.858
222.444
225.553
187.887
143.188
109.402
81.2996
59.6481
43.6494
32.0404
19.3283
13.7933
10.9259
9.17718
7.31612
5.57343
4.23167
3.24575
2.494
1.90778
1.45479
1.1143
0.861879
0.675624
0.548447
0.473193
0.441462
0.424041
0.34119
-0.0170693
47.1057
47.8521
49.627
52.6024
57.142
63.9418
74.2081
90.0092
114.937
156.266
224.375
301.186
319.209
218.477
148.084
107.458
72.2723
48.2435
32.4041
22.2261
15.1691
-3.67355
-1.34927
1.4159
1.62539
1.10705
0.667126
0.311539
-0.0184103
-0.315687
-0.567521
-0.763552
-0.911147
-1.01263
-1.05529
-1.02276
-0.890465
-0.644306
-0.335736
-0.308255
42.9167
43.4233
44.5653
46.4991
49.5451
54.3189
61.9537
74.613
96.6887
147.497
235.552
418.068
566.007
206.461
160.488
106.703
60.3708
34.3793
19.4249
10.4093
5.88308
-4.71196
-1.66275
-1.83154
-2.95222
-3.61508
-3.94155
-4.19198
-4.41289
-4.58229
-4.6931
-4.76468
-4.78036
-4.74531
-4.64233
-4.43826
-4.07335
-3.43923
-2.34575
-0.508916
38.435
38.6086
38.9561
39.5476
40.5444
42.2359
45.1344
50.1913
59.2126
96.3138
170.135
399.908
1863.36
225.475
81.2773
29.5571
10.6815
0.921909
-8.71958
-16.3913
14.0818
11.0799
4.069
0.107113
-1.75741
-2.85071
-3.63799
-4.20644
-4.59093
-4.8361
-4.97357
-5.03084
-5.02143
-4.9251
-4.71666
-4.34129
-3.70402
-2.65151
-1.01023
33.9568
33.7783
33.2662
32.3887
31.1009
29.2659
26.5769
22.327
14.7232
17.4377
4.75035
-136.569
-920.49
-964.113
-270.274
-81.4182
-38.7693
-24.9483
-18.6384
-13.3122
-5.23
-7.1416
-7.19428
-6.88271
-6.2321
-5.36024
-4.52145
-3.83029
-3.27917
-2.83421
-2.46964
-2.15669
-1.90095
-1.67681
-1.45014
-1.19277
-0.870296
-0.452743
0.0377068
0.329314
29.8545
29.3413
28.0239
25.7783
22.3945
17.4245
10.047
-1.25977
-19.4423
-40.3522
-103.952
-231.56
-419.463
-441.245
-273.8
-147.446
-85.8398
-54.3434
-36.5591
-24.9579
-16.4609
-11.762
-7.45968
-4.26779
-2.53076
-1.60283
-0.996655
-0.577629
-0.306253
-0.137539
-0.0290763
0.0459693
0.0994261
0.146013
0.201191
0.275321
0.372916
0.483237
0.545647
0.399237
26.4668
25.6756
23.6998
20.3617
15.3578
8.10269
-2.38002
-17.6803
-40.4747
-75.4703
-124.397
-186.005
-241.469
-247.784
-198.988
-138.541
-93.9888
-65.6372
-46.9454
-33.7574
-24.4506
-18.5119
-13.2877
-9.41998
-6.9491
-5.29506
-4.02803
-3.00919
-2.20043
-1.56277
-1.05389
-0.642109
-0.30809
-0.0376707
0.183963
0.361658
0.492007
0.556504
0.511669
0.300263
24.066
23.0792
20.649
16.5759
10.5296
1.91013
-10.1748
-26.9282
-49.8511
-80.4583
-118.669
-160.074
-192.574
-198.757
-173.596
-133.689
-97.8222
-71.6672
-53.0051
-39.1509
-28.7542
-21.0571
-15.0118
-10.4186
-7.09595
-4.7082
-2.95007
-1.63848
-0.667827
0.0409424
0.554109
0.922408
1.18114
1.35356
1.45633
1.49418
1.45993
1.33116
1.06398
0.590009
22.8307
21.7401
19.0804
14.6455
8.10353
-1.12555
-13.8383
-30.9622
-53.3715
-81.3811
-113.632
-145.593
-169.051
-174.585
-158.775
-129.55
-99.1907
-74.476
-55.8288
-41.6534
-30.7838
-22.5499
-16.3335
-11.6409
-8.16829
-5.64613
-3.80556
-2.43847
-1.41284
-0.642702
-0.0648637
0.368038
0.688692
0.917808
1.06711
1.13842
1.12338
1.00307
0.752395
0.366777
54.4784
55.4703
57.8131
61.5543
66.7523
73.5353
82.0089
92.1001
103.389
114.857
124.619
129.871
127.955
118.198
103.024
86.424
70.943
57.3551
45.7861
36.2438
28.6192
22.6244
17.9086
14.2095
11.3455
9.13148
7.41272
6.08378
5.06476
4.28746
3.69049
3.22275
2.85141
2.55028
2.29726
2.06587
1.82454
1.53642
1.1496
0.600654
53.5523
54.5294
56.8222
60.4992
65.6637
72.5158
81.2785
92.0614
104.681
118.331
131.076
138.779
136.792
124.085
105.291
86.3753
69.6754
55.4182
43.5868
34.1375
26.8667
21.1362
16.594
13.0957
10.4407
8.37735
6.75292
5.48585
4.50658
3.75462
3.17699
2.72401
2.36634
2.08129
1.84948
1.64853
1.45333
1.22914
0.930192
0.484792
51.7378
52.6628
54.8259
58.3273
63.3453
70.2102
79.3733
91.3378
106.511
124.756
143.741
157.298
155.055
135.418
109.748
86.9274
67.8902
52.2837
39.919
30.666
24.558
19.3615
14.5068
10.9443
8.49125
6.67525
5.29053
4.24634
3.45799
2.84961
2.37587
2.01659
1.74954
1.55053
1.40581
1.30483
1.23739
1.17615
1.05691
0.696408
49.0903
49.9078
51.8206
54.957
59.5749
66.1546
75.4518
88.5969
107.27
133.886
164.166
194.785
196.121
162.541
124.351
95.6697
71.3974
52.5957
38.623
28.6862
19.6756
17.2549
11.9371
7.92532
5.21794
3.26896
1.88868
0.920132
0.22004
-0.297291
-0.675883
-0.938034
-1.1062
-1.20629
-1.23764
-1.19142
-1.05337
-0.81338
-0.490722
-0.244804
45.7191
46.3611
47.8658
50.3662
54.1624
59.8244
68.3309
81.3647
101.89
138.51
196.461
262.463
275.71
185.017
127.524
93.0638
62.0781
41.0776
27.3141
18.9207
15.8993
8.27292
5.78181
3.93999
2.13024
0.614074
-0.463725
-1.25905
-1.89216
-2.40223
-2.80826
-3.10935
-3.32211
-3.46166
-3.50755
-3.4187
-3.14103
-2.58512
-1.67037
-0.635893
41.7577
42.1928
43.1224
44.6769
47.1234
50.9639
57.118
67.3663
85.3795
130.357
209.396
374.58
505.956
165.609
147.578
96.3446
51.0047
26.9185
13.6801
5.70246
-1.21022
-31.0757
-28.5136
-26.5391
-25.5741
-24.5199
-23.5023
-22.641
-21.9009
-21.2282
-20.5954
-20.0069
-19.4251
-18.8134
-18.1439
-17.3584
-16.3377
-14.831
-12.2695
-7.22109
37.5493
37.6801
37.8922
38.2413
38.8611
39.9773
41.9968
45.6937
52.6073
85.5234
153.32
373.402
1777.67
261.48
81.185
19.9811
0.442863
-7.89599
-13.8933
-19.1494
-1.90905
-4.92622
-9.73618
-12.1598
-13.1484
-13.6517
-13.958
-14.1097
-14.1288
-14.0496
-13.9136
-13.6905
-13.3916
-13.001
-12.461
-11.6612
-10.3725
-8.15456
-4.30768
33.355
33.1644
32.6043
31.6423
30.2369
28.26
25.4367
21.1607
13.9632
16.2674
5.88291
-117.611
-824.841
-864.129
-233.872
-71.713
-39.1052
-28.5557
-23.0713
-17.9019
-12.5448
-22.0787
-18.1981
-14.2852
-11.9831
-10.3815
-9.14735
-8.22078
-7.53092
-7.00482
-6.59129
-6.24574
-5.9527
-5.67948
-5.38548
-5.01927
-4.50919
-3.74401
-2.60112
-1.14464
29.5202
29.0236
27.74
25.5589
22.2996
17.5769
10.6909
0.366468
-15.846
-34.4326
-89.7849
-200.837
-364.878
-382.348
-236.071
-128.737
-77.5211
-51.1157
-35.8198
-25.9214
-20.1739
-19.3784
-12.9543
-7.79158
-5.19985
-3.8603
-2.97896
-2.36297
-1.95162
-1.68022
-1.49368
-1.3589
-1.25632
-1.15782
-1.04247
-0.886566
-0.662306
-0.344236
0.049818
0.318913
26.3567
25.6068
23.7331
20.5783
15.8858
9.15585
-0.437046
-14.2196
-34.4121
-64.9253
-107.125
-159.827
-206.883
-212.521
-171.905
-121.504
-84.2486
-60.2239
-44.0728
-32.6008
-24.7558
-20.2866
-15.0926
-10.8765
-8.14524
-6.30288
-4.88624
-3.75365
-2.86329
-2.16873
-1.6221
-1.1859
-0.838497
-0.553825
-0.313869
-0.104108
0.084358
0.248818
0.355597
0.304124
24.1189
23.19
20.9076
17.0974
11.4798
3.54292
-7.46845
-22.5573
-42.9549
-69.8739
-103.134
-138.846
-166.848
-172.405
-151.431
-118.006
-87.7189
-65.3084
-49.0386
-36.8228
-27.6601
-20.9477
-15.5308
-11.1661
-7.88082
-5.47269
-3.67744
-2.32293
-1.30802
-0.556249
-0.00249229
0.403738
0.698357
0.90834
1.05224
1.13984
1.17084
1.13006
0.976505
0.610972
22.9706
21.9456
19.4561
15.3227
9.26324
0.783105
-10.7911
-26.2309
-46.2377
-71.0097
-99.2963
-127.154
-147.589
-152.649
-139.511
-114.939
-89.1484
-67.8663
-51.5588
-39.0038
-29.3081
-21.9417
-16.3238
-11.9476
-8.60467
-6.12177
-4.27835
-2.88732
-1.82764
-1.0202
-0.40585
0.0610464
0.413329
0.673694
0.855988
0.966023
0.99981
0.942467
0.767899
0.438029
52.4552
53.3043
55.2875
58.4342
62.7772
68.3972
75.3436
83.5036
92.4683
101.344
108.576
112.008
109.641
101.095
88.4033
74.6541
61.7788
50.3479
40.4646
32.1677
25.4085
20.0186
15.7798
12.4732
9.90245
7.8925
6.31652
5.0893
4.14209
3.42191
2.87403
2.44258
2.10069
1.82008
1.59455
1.39987
1.20712
0.996568
0.714473
0.351082
51.5769
52.4124
54.3459
57.4234
61.7138
67.3528
74.4769
83.1058
92.9937
103.371
112.564
117.649
115.094
104.334
89.0714
73.792
60.1612
48.3136
38.2752
30.0442
23.4603
18.2897
14.2546
11.1585
8.77511
6.899
5.41186
4.2402
3.3155
2.61779
2.11214
1.70608
1.37759
1.11336
0.906709
0.740377
0.59327
0.440117
0.28233
0.111628
49.8596
50.6479
52.4561
55.3556
59.4754
65.049
72.3804
81.7729
93.3945
106.921
120.444
129.21
126.019
109.982
89.8344
72.1172
57.177
44.576
34.2611
26.1415
19.8346
15.2399
11.4261
8.54089
6.36925
4.6959
3.42343
2.47499
1.7769
1.2278
0.774271
0.447326
0.221064
0.0769951
-0.0175688
-0.0593491
-0.0485541
0.0102727
0.0973226
0.146872
47.3584
48.0538
49.6276
52.1789
55.8976
61.1291
68.3958
78.4382
92.289
111.241
136.129
157.711
156.845
129.885
100.046
77.6565
58.5952
43.5355
32.0048
23.4483
12.3279
9.65182
6.40732
3.78719
1.62468
-0.0704721
-1.29864
-2.17811
-2.82916
-3.31643
-3.66986
-3.89846
-4.0275
-4.08241
-4.05922
-3.93619
-3.68913
-3.26516
-2.58203
-1.47375
44.188
44.728
45.9321
47.9019
50.8607
55.2201
61.657
71.304
86.104
115.3
156.655
203.007
207.656
136.433
95.3121
69.6229
46.0828
29.754
18.7358
11.9989
10.3143
-1.60448
-3.06532
-4.59522
-6.11899
-7.43871
-8.21106
-8.70052
-9.04873
-9.29566
-9.45825
-9.54821
-9.55102
-9.46549
-9.30735
-9.00361
-8.47814
-7.57825
-6.04406
-3.46566
40.5113
40.8415
41.5311
42.6607
44.4256
47.1777
51.5431
58.7048
71.0399
105.872
166.459
290.964
384.894
99.3338
108.862
56.93
21.6478
3.46331
-6.48022
-11.7667
-10.9679
-25.6597
-27.3355
-31.2639
-32.4798
-32.1285
-31.5715
-30.9601
-30.275
-29.5336
-28.76
-27.9533
-27.1472
-26.3275
-25.4231
-24.3672
-23.014
-21.0167
-17.5619
-10.6482
36.5843
36.651
36.7095
36.7857
36.97
37.4028
38.3236
40.1792
43.8558
68.724
120.844
302.266
1583.68
255.958
-12.7693
-56.1803
-65.7038
-67.4895
-66.1581
-61.3306
-35.3098
-34.8564
-37.1005
-37.3923
-36.5831
-35.6041
-34.6298
-33.6381
-32.6322
-31.6265
-30.6501
-29.6688
-28.6413
-27.5806
-26.3922
-24.9213
-22.7984
-19.1589
-11.7364
32.6891
32.4759
31.8572
30.7954
29.2471
27.0843
24.0433
19.5895
12.5545
13.2972
4.03463
-91.9243
-659.525
-655.84
-186.711
-73.8384
-50.1167
-41.0278
-35.4487
-30.1681
-27.7424
-30.7445
-26.9082
-23.0825
-20.7297
-18.9909
-17.6128
-16.5293
-15.6555
-14.9264
-14.2983
-13.7431
-13.2493
-12.7414
-12.2094
-11.5996
-10.811
-9.65967
-7.80713
-4.58688
29.135
28.6548
27.4023
25.2861
22.1564
17.691
11.3208
2.06486
-11.7934
-27.6765
-72.0083
-157.127
-280.204
-293.587
-185.948
-106.885
-68.2176
-47.2419
-34.4833
-26.1755
-23.6732
-19.1389
-15.195
-11.9671
-9.99894
-8.6901
-7.69107
-6.91166
-6.30726
-5.83124
-5.44464
-5.11944
-4.84124
-4.57649
-4.30199
-3.98917
-3.59462
-3.05744
-2.29658
-1.2178
26.2103
25.5037
23.7388
20.7807
16.4254
10.2674
1.65212
-10.4342
-27.6254
-52.7862
-86.6118
-127.453
-162.839
-167.957
-138.615
-100.931
-72.1833
-52.8923
-39.3698
-29.4548
-22.4417
-18.5795
-14.9105
-11.7998
-9.48127
-7.74097
-6.36569
-5.26102
-4.37867
-3.67342
-3.10502
-2.64077
-2.25989
-1.9354
-1.64817
-1.38116
-1.12097
-0.856371
-0.584234
-0.298904
24.1462
23.2804
21.1575
17.6331
12.4844
5.29887
-4.52122
-17.7423
-35.2523
-57.8439
-85.144
-113.84
-136.133
-140.78
-125.069
-99.693
-75.8942
-57.637
-43.9423
-33.4038
-25.3389
-19.4135
-14.8257
-11.1672
-8.35126
-6.22955
-4.62014
-3.38939
-2.44852
-1.7315
-1.18472
-0.76674
-0.446857
-0.201122
-0.0128394
0.12782
0.221754
0.260696
0.226935
0.107823
23.0896
22.1359
19.8317
16.0266
10.4959
2.84221
-7.46699
-21.0186
-38.2983
-59.3367
-82.9775
-105.947
-122.692
-127.085
-117.124
-97.969
-77.4081
-59.9504
-46.1885
-35.3508
-26.8348
-20.2978
-15.3344
-11.5111
-8.57912
-6.35788
-4.67535
-3.38961
-2.40139
-1.64133
-1.05699
-0.607319
-0.262119
-0.000483568
0.191197
0.319408
0.381098
0.365043
0.260572
0.0905827
50.4231
51.1242
52.7434
55.2897
58.7697
63.2176
68.627
74.8476
81.4847
87.7738
92.4975
94.1118
91.3266
84.0565
73.87
62.9544
52.6662
43.4003
35.2351
28.235
22.4116
17.6956
13.9779
11.1245
8.91968
7.17726
5.79496
4.71181
3.87312
3.22863
2.73175
2.34166
2.03232
1.78325
1.57889
1.3989
1.21867
1.01254
0.745986
0.39031
49.5921
50.2804
51.8506
54.3229
57.7308
62.1481
67.6249
74.0935
81.2518
88.3821
94.1267
96.3994
93.1834
84.413
72.7632
61.1458
50.6434
41.3051
33.1703
26.3001
20.6395
16.0732
12.5341
9.9334
7.96386
6.40708
5.17041
4.19509
3.42599
2.82255
2.34978
1.97117
1.66679
1.42165
1.22375
1.06004
0.912568
0.758389
0.56938
0.305842
47.9716
48.6159
50.0661
52.3584
55.573
59.848
65.3409
72.1581
80.2342
89.0747
97.1651
101.143
96.659
83.9356
69.2458
56.6302
45.8659
36.3476
28.1634
21.3879
15.8568
11.554
8.85607
6.95054
5.3296
4.0023
3.0065
2.28087
1.74617
1.34228
1.03617
0.815253
0.662372
0.560959
0.498967
0.475883
0.489365
0.526457
0.549167
0.436779
45.6228
46.1793
47.4127
49.3757
52.1895
56.0663
61.2959
68.2309
77.257
88.6602
100.544
108.426
101.309
80.688
62.245
49.4414
38.8055
29.6279
21.9704
15.4995
8.94565
2.7428
2.79869
3.16443
2.49522
1.54537
0.741963
0.102469
-0.421059
-0.846999
-1.17986
-1.42262
-1.58463
-1.67789
-1.69988
-1.6345
-1.46316
-1.15903
-0.71088
-0.186196
42.6572
43.0762
43.9743
45.4139
47.5288
50.5757
54.9238
61.122
69.9377
90.095
111.501
131.843
124.417
81.5832
57.0726
44.1008
30.0816
19.3501
11.7425
6.26569
0.814611
-13.385
-10.7336
-7.78618
-6.50381
-5.88434
-5.44326
-5.13318
-4.9437
-4.83746
-4.77871
-4.73898
-4.69905
-4.64299
-4.53395
-4.32272
-3.94312
-3.28923
-2.24812
-0.850906
39.24
39.4711
39.9158
40.6183
41.6966
43.3494
45.896
49.869
56.1527
78.1188
105.706
149.402
165.816
27.0931
19.5782
3.93599
-4.59399
-8.87244
-12.282
-14.8918
-21.2621
-14.1215
-15.1873
-16.8882
-17.349
-17.2173
-16.9679
-16.6884
-16.3804
-16.0518
-15.7092
-15.3379
-14.9584
-14.5618
-14.0862
-13.4686
-12.5969
-11.2367
-8.94586
-4.9832
35.5998
35.6027
35.5021
35.3028
35.0486
34.7895
34.5818
34.4955
34.5965
48.7148
60.4463
131.409
175.345
-676.715
-124.938
-88.8153
-65.8322
-61.1717
-57.5218
-54.5178
-66.5002
-40.5074
-38.3459
-36.1967
-34.2404
-32.3308
-30.6382
-29.1697
-27.8635
-26.6839
-25.6104
-24.6273
-23.7128
-22.8081
-21.8811
-20.8654
-19.6422
-17.9258
-15.0872
-9.50257
32.0054
31.7628
31.0832
29.9213
28.2305
25.8766
22.5914
17.8705
10.7365
8.98333
-13.0987
-81.1844
-304.305
-256.759
-104.798
-56.3791
-36.1783
-27.5493
-22.6135
-18.2917
-10.4344
4.99212
1.70964
-2.08548
-3.68848
-4.40874
-4.85324
-5.14703
-5.32375
-5.41821
-5.45923
-5.47008
-5.44381
-5.35417
-5.18632
-4.91633
-4.47761
-3.74798
-2.57469
-1.01896
28.7249
28.2583
27.0387
24.9887
21.9903
17.7794
11.8964
3.55727
-8.70031
-27.8308
-52.1118
-106.624
-176.366
-187.088
-128.197
-80.6562
-54.3953
-38.6303
-28.4689
-20.9714
-10.9972
-2.06801
-2.95098
-4.27868
-4.2066
-3.67368
-3.16648
-2.74556
-2.39603
-2.11129
-1.8845
-1.70284
-1.55571
-1.42707
-1.28504
-1.10758
-0.870613
-0.544325
-0.146434
0.112947
26.0378
25.3749
23.7157
20.9569
16.9433
11.3617
3.7239
-6.6901
-20.9073
-40.2492
-65.333
-93.6629
-117.134
-121.531
-104.006
-79.3158
-58.8914
-44.2066
-33.3245
-24.6817
-17.3668
-12.3057
-9.40244
-7.29341
-5.41949
-3.87344
-2.69811
-1.81942
-1.15756
-0.658568
-0.283759
-0.00209367
0.207759
0.368262
0.502211
0.621149
0.728902
0.814388
0.821897
0.573472
24.1438
23.3414
21.3793
18.1447
13.4716
7.04672
-1.56968
-12.9051
-27.4864
-45.5945
-66.6094
-88.071
-104.282
-108.282
-98.2802
-80.7703
-63.4214
-49.3029
-38.2016
-29.2788
-22.0372
-16.3735
-11.9984
-8.74232
-6.27986
-4.39197
-2.95105
-1.85444
-1.01908
-0.383193
0.0985216
0.460946
0.730516
0.927844
1.06745
1.15651
1.1907
1.14896
0.981062
0.579204
23.1758
22.2955
20.1787
16.7071
11.7136
4.89747
-4.13186
-15.7704
-30.2784
-47.4946
-66.3431
-84.2851
-97.2239
-100.967
-94.2432
-80.4868
-65.0804
-51.4034
-40.1866
-31.0581
-23.6441
-17.7465
-13.1766
-9.70437
-7.04667
-4.9837
-3.38165
-2.14482
-1.19425
-0.466204
0.0884435
0.507307
0.819108
1.0443
1.19559
1.27843
1.28627
1.19899
0.976938
0.552562
48.5248
49.0836
50.3605
52.3499
55.0303
58.3982
62.4025
66.8718
71.4432
75.4944
78.1317
78.3401
75.3954
69.4144
61.5021
53.0848
45.0541
37.6966
31.0944
25.335
20.4768
16.5113
13.3719
10.9304
9.00135
7.44276
6.18324
5.1782
4.38412
3.75826
3.2634
2.86837
2.54825
2.28199
2.05055
1.83424
1.60812
1.34199
0.998064
0.531133
47.7382
48.2847
49.5126
51.4286
54.0188
57.3158
61.2986
65.84
70.6188
75.013
78.0166
78.3406
74.9756
68.1524
59.5529
50.9266
42.9644
35.7164
29.2484
23.676
19.0391
15.3147
12.4494
10.2627
8.52367
7.10404
5.95187
5.02435
4.27637
3.67039
3.17778
2.77524
2.44322
2.1646
1.92392
1.70612
1.48996
1.24624
0.933892
0.498373
46.2082
46.713
47.8241
49.5584
51.9431
55.0395
58.8907
63.461
68.5333
73.5322
77.2544
77.7822
73.2771
64.3791
54.4827
45.8421
38.2898
31.3281
25.1039
19.8324
15.5529
12.3159
10.1504
8.43965
6.8886
5.56124
4.51613
3.71628
3.10035
2.62218
2.25148
1.9656
1.7469
1.58023
1.45297
1.35536
1.2728
1.17772
1.013
0.652956
43.9999
44.4248
45.3354
46.7564
48.7504
51.4153
54.8654
59.1834
64.3336
69.9321
74.6568