/*--------------------------------*- C++ -*----------------------------------*\
| =========                 |                                                 |
| \\      /  F ield         | OpenFOAM: The Open Source CFD Toolbox           |
|  \\    /   O peration     | Version:  2306                                  |
|   \\  /    A nd           | Website:  www.openfoam.com                      |
|    \\/     M anipulation  |                                                 |
\*---------------------------------------------------------------------------*/
FoamFile
{
    version     2.0;
    format      ascii;
    arch        "LSB;label=32;scalar=64";
    class       surfaceScalarField;
    location    "0.6";
    object      phi;
}
// * * * * * * * * * * * * * * * * * * * * * * * * * * * * * * * * * * * * * //

dimensions      [0 3 -1 0 0 0 0];

oriented        oriented;

internalField   nonuniform List<scalar> 
338621
(
24.995
0.00220474
0.00150394
24.9873
0.00467886
0.00307991
24.9751
0.00746694
0.00486114
24.9578
0.0104522
0.00698785
24.9345
0.0137587
0.00976649
24.9016
0.0198034
0.0133561
24.8547
0.0293742
0.0178545
24.7914
0.0400804
0.0235526
24.7292
0.0320002
0.030657
24.6857
0.00492801
0.0390482
24.6569
-0.0193766
0.0485594
24.5826
0.0160683
0.0587033
24.6108
-0.0969124
0.0691229
24.7409
-0.208526
0.0788142
24.7826
-0.128296
0.0870799
24.815
-0.125502
0.0935041
24.844
-0.126924
0.0981721
24.8678
-0.125153
0.101674
24.8879
-0.12415
0.10423
24.9151
-0.133371
0.106232
24.9456
-0.138065
0.107666
24.9689
-0.132264
0.10893
24.987
-0.128183
0.110152
25.0019
-0.126062
0.111232
25.0144
-0.124831
0.11231
25.0248
-0.12382
0.113378
25.0338
-0.123325
0.114344
25.0414
-0.122762
0.115177
25.0477
-0.122263
0.115953
25.0532
-0.12207
0.116624
25.0579
-0.121918
0.117155
25.0622
-0.121812
0.117506
25.0661
-0.121675
0.117779
25.0697
-0.121506
0.117948
25.073
-0.121327
0.117972
25.0766
-0.121449
0.117882
25.0803
-0.121386
0.117646
25.0843
-0.12134
0.117352
25.0887
-0.121376
0.116978
-0.121784
0.116316
24.9949
0.00439729
0.0014712
24.9872
0.00950939
0.002976
24.9746
0.0154831
0.0047236
24.9572
0.0211851
0.00681622
24.9338
0.0277667
0.00955386
24.9041
0.0367108
0.0130164
24.8682
0.0480195
0.0175415
24.8222
0.0631253
0.0233034
24.7573
0.0666859
0.03056
24.6823
0.0409927
0.0393365
24.639
-0.0253059
0.0495932
24.6253
-0.030475
0.0605589
24.6635
-0.207411
0.0725411
24.7472
-0.375482
0.0835159
24.8274
-0.300709
0.0925593
24.8957
-0.293004
0.0993933
24.9483
-0.283476
0.104274
24.9908
-0.275344
0.107806
25.0363
-0.279902
0.110382
25.0708
-0.280063
0.112202
25.0918
-0.272471
0.113529
25.1068
-0.261894
0.114582
25.1173
-0.2543
0.115668
25.1256
-0.251017
0.116669
25.1318
-0.248731
0.117642
25.1367
-0.247221
0.118546
25.1398
-0.245891
0.119427
25.1423
-0.245455
0.12022
25.1444
-0.245264
0.120943
25.1457
-0.244945
0.121578
25.1466
-0.244937
0.122102
25.147
-0.244704
0.122506
25.1475
-0.244973
0.122808
25.1479
-0.244957
0.122994
25.1485
-0.244932
0.123053
25.1492
-0.245186
0.123033
25.1502
-0.245255
0.122846
25.1517
-0.245417
0.122609
25.154
-0.245932
0.122242
-0.245975
0.121626
24.9953
0.00627294
0.00139217
24.9876
0.01446
0.00281142
24.9756
0.02313
0.00442937
24.9576
0.0328648
0.00648316
24.9331
0.0432808
0.00910583
24.9017
0.0557849
0.0124908
24.8616
0.0713908
0.017021
24.8121
0.0899801
0.0228676
24.7429
0.105751
0.0304871
24.6446
0.0994034
0.0401591
24.5675
0.00530323
0.0519368
-0.00609525
0.00574215
-0.00483167
24.6636
-0.0386464
0.0656156
-0.0583725
-0.0375018
-0.0575904
24.5556
-0.0109179
0.0787172
-0.0952072
0.0218033
-0.0937373
24.728
-0.181842
0.0914017
-0.123575
-0.211778
-0.122021
24.8213
-0.128445
0.10103
-0.121051
-0.126455
-0.118907
24.8823
-0.117498
0.108
-0.115523
-0.115199
-0.113574
24.9365
-0.113546
0.112819
-0.113665
-0.111855
-0.111282
25.0024
-0.115867
0.116176
-0.114685
-0.114036
-0.112829
25.0456
-0.112033
0.118495
-0.110507
-0.110271
-0.108821
25.0718
-0.107975
0.119859
-0.106813
-0.106258
-0.105088
25.0905
-0.411655
0.120407
25.1053
-0.397485
0.120816
25.1149
-0.385438
0.121548
25.1223
-0.380824
0.122372
25.1282
-0.377788
0.123147
25.1325
-0.375257
0.123809
25.1351
-0.372941
0.12438
25.1371
-0.372259
0.124885
25.1377
-0.371226
0.12533
25.1382
-0.371202
0.125721
25.1381
-0.370826
0.12605
25.1378
-0.370781
0.126311
25.1372
-0.370784
0.12645
25.1367
-0.371031
0.126598
25.1359
-0.370785
0.126582
25.1353
-0.371084
0.126515
25.1352
-0.371477
0.126289
25.1356
-0.3718
0.125998
25.1363
-0.372205
0.125578
-0.372602
0.124965
24.9956
0.00844892
0.00127109
24.9888
0.0187209
0.00256605
24.977
0.0309754
0.00402242
24.9601
0.0439178
0.00594794
24.9355
0.0596778
0.00837629
24.9009
0.0788922
0.0116023
24.8552
0.101344
0.0159677
24.7968
0.126796
0.0217746
24.73
0.143103
0.0296146
6.14117
0.0366833
0.0401032
0.0540343
0.0381427
0.0544074
6.16331
6.14036
6.16143
6.12354
0.0170964
0.00583953
-6.11037
6.09814
-0.0340498
0.00762659
-6.10198
6.12344
-0.041865
0.00947244
-6.11564
6.14255
-0.220154
0.0113868
-6.16123
6.17548
-0.155533
0.0128284
-6.18874
6.19947
-0.141994
0.0137701
-6.21084
6.22522
-0.142371
0.0144455
-6.23726
6.24456
-0.138054
0.0148905
-6.25045
6.25574
-0.132473
0.0151408
-6.26024
6.26438
-0.127397
0.0152772
25.1024
-0.138755
0.125795
-0.139471
-0.138615
-0.140187
-6.26815
-6.27299
-6.26863
-6.27311
25.1095
-0.529434
0.124826
25.1138
-0.514882
0.125074
25.1179
-0.510539
0.125577
25.1197
-0.505682
0.126104
25.1195
-0.50168
0.126616
25.1187
-0.499206
0.12712
25.1163
-0.497523
0.127612
25.1129
-0.495874
0.128077
25.1086
-0.495382
0.1285
25.1038
-0.494913
0.128858
25.0985
-0.494568
0.129132
25.0926
-0.49419
0.129263
25.0867
-0.4945
0.129393
25.0808
-0.494226
0.129313
25.0748
-0.494187
0.129143
25.0689
-0.494391
0.128771
25.0633
-0.494425
0.128223
25.059
-0.495374
0.127516
-0.495263
0.126587
24.9973
0.00897047
0.00110857
24.9913
0.0224967
0.00223628
24.9815
0.0373306
0.00349892
24.966
0.054289
0.00519049
24.9431
0.0753714
0.00732928
24.9096
0.102322
0.0101894
24.8595
0.137474
0.0140642
24.7851
0.181923
0.0194045
6.17109
0.23202
0.0266805
6.16379
6.1709
6.1638
6.15497
0.0488344
0.00397485
6.12946
0.0055305
-6.15749
0.0202147
0.0118316
0.0116804
0.0202942
-0.0415197
-6.07653
6.04216
0.00744175
-0.00199315
0.00422344
0.00389449
-0.00186179
0.0226401
-6.0416
6.05988
0.00957268
0.0293037
-0.0400186
-0.0402145
-0.0189532
0.0419799
-6.11234
6.1377
0.0118737
-0.0516453
-0.0663966
-0.104341
-0.0520607
0.237165
-6.17008
6.18193
0.0130431
-0.0500323
-0.0539227
-0.0532693
-0.0503882
0.182699
-6.19361
6.20712
0.0137759
-0.0504231
-0.0495251
-0.0495666
-0.0503272
0.172551
-6.22087
6.23287
0.0142073
-0.0485168
-0.0482778
-0.0484327
-0.0483951
0.167411
-6.24268
6.25005
0.0143383
-0.0455494
-0.0453746
-0.0454377
-0.0455356
0.160168
-6.25652
6.26115
0.0143173
-0.0426825
-0.0429158
-0.0428363
-0.0428087
0.152272
-6.26531
6.26759
0.0142579
-0.0402551
-0.0407924
-0.0405914
-0.0404812
0.145575
-6.27092
6.2729
-0.155006
0.014267
25.0592
-0.610888
0.109814
-6.27386
-6.2691
-6.27454
-6.27011
25.0385
-0.602938
0.108769
25.0151
-0.594598
0.107457
24.9907
-0.587263
0.105969
24.9666
-0.58228
0.104649
24.9426
-0.578754
0.103594
24.9185
-0.576211
0.102794
24.8951
-0.574703
0.102218
24.8718
-0.573879
0.101806
24.8491
-0.573784
0.101504
24.8275
-0.574131
0.101248
24.8069
-0.574565
0.100954
24.7869
-0.575174
0.100694
24.7682
-0.575842
0.100307
24.7505
-0.576338
0.0998072
24.7339
-0.57694
0.0991245
24.719
-0.577665
0.0982055
24.7056
-0.579071
0.0970398
-0.581957
0.0955804
24.9999
0.00753807
0.000907002
24.9965
0.0240656
0.00183433
24.9889
0.042075
0.0028728
24.9771
0.0619375
0.00419437
24.9595
0.0871521
0.00593112
24.9323
0.121311
0.0082036
24.8891
0.169496
0.011227
24.8167
0.239018
0.0154241
6.17066
0.346034
0.0210451
6.17025
6.17063
6.1701
-0.0648301
6.145
0.0873496
0.00313466
-0.0196038
-1.52757
1.52241
0.024175
0.000586353
-0.0195167
-1.50418
1.49205
0.0309086
0.000730786
-1.46856
0.0519991
1.47849
-0.0630301
0.00109468
-1.53019
0.0840407
1.53897
-0.0939746
0.00114483
-1.53702
0.0600764
-0.0635124
0.00155675
1.53889
-1.54793
0.057974
-0.0618725
0.00136467
1.55046
0.0551682
-1.55633
1.55787
-0.0579041
0.00119437
0.0505591
-1.56113
1.56178
-0.0522623
0.00104949
0.047109
-1.56272
1.56289
-0.048245
0.000963965
0.044185
-1.56251
1.56222
-0.0448473
0.000957158
-1.5568
0.164214
6.17316
-0.147259
0.00884422
-1.54273
-1.55708
-1.54235
23.8676
-0.687812
0.0485542
-6.11205
-5.80191
-6.11644
-5.80879
23.8843
-0.67094
0.051221
23.8977
-0.66019
0.0522073
23.909
-0.651174
0.0525866
23.918
-0.644002
0.0527341
23.925
-0.638418
0.052628
23.9309
-0.634317
0.0522115
23.9363
-0.631527
0.0514757
23.9418
-0.629849
0.0504621
23.9477
-0.62898
0.0492431
23.9543
-0.628595
0.0478984
23.9618
-0.628545
0.0464764
23.9701
-0.628503
0.045092
23.9788
-0.628318
0.0437103
23.9883
-0.62811
0.0423322
23.9981
-0.627674
0.0409077
24.0082
-0.627115
0.0393388
24.0181
-0.626493
0.0374923
-0.625479
0.0352704
25.003
0.0036597
0.000676244
25.0035
0.0221771
0.00137009
25.0007
0.0428343
0.00214483
24.995
0.064601
0.00305716
24.9862
0.091724
0.00423023
24.9726
0.129102
0.00575073
24.953
0.181502
0.00763223
24.922
0.259972
0.0100395
6.21327
0.386238
0.012899
6.22139
6.21302
6.22124
-0.105687
6.19788
0.119218
0.00185902
-0.0392865
-1.54206
1.53591
0.0451132
0.00032448
-0.0821323
-1.50643
1.48787
0.100291
0.000402203
0.00442776
-0.0747062
0.0748966
-0.00466179
4.35811e-05
-0.0214102
0.000449264
0.0209224
2.15678e-06
3.6382e-05
-0.203973
0.0102776
-0.0215136
-0.00254019
0.217749
-1.17016
0.0577708
-0.0765403
0.0001581
1.18877
0.05018
-1.22693
1.23487
-0.0581209
3.35368e-06
0.0465857
-1.26013
1.26881
-0.0550381
-0.00022309
0.0423077
-1.29238
1.3002
-0.0494852
-0.000637701
0.0401498
-1.322
1.33033
-0.0473493
-0.00113209
-1.37698
0.172135
5.77458
-0.204582
-0.00965019
-1.48842
-1.37834
-1.48873
24.0412
-0.648524
-0.0815107
-5.8373
-6.16837
-5.82635
-6.16695
24.0721
-0.622914
-0.0789115
24.0993
-0.611034
-0.076398
24.1249
-0.602525
-0.074243
24.1487
-0.595399
-0.0724095
24.1712
-0.589948
-0.0709434
24.1929
-0.586044
-0.0699537
24.2139
-0.583242
-0.0693364
24.2344
-0.581296
-0.0690468
24.2543
-0.579897
-0.0689882
24.2736
-0.578793
-0.0690968
24.2922
-0.577899
-0.0692347
24.3102
-0.577016
-0.0694402
24.3275
-0.576055
-0.0695949
24.3441
-0.574929
-0.0697711
24.3603
-0.573827
-0.0700163
24.376
-0.572467
-0.0703933
24.3912
-0.57063
-0.0710337
-0.567546
-0.0720306
25.0047
-0.00122539
0.000458756
25.01
0.0160387
0.000897789
25.0149
0.0365656
0.00136333
25.0188
0.0587608
0.0018875
25.0207
0.0873501
0.00244881
25.0258
0.120858
0.00310609
25.038
0.165531
0.00371497
25.0642
0.229639
0.00410005
6.27442
0.330411
0.00394192
6.2822
6.27482
6.28459
-0.111199
6.28222
0.102968
0.000438809
-0.0444834
-1.57798
1.57967
0.0427519
3.51463e-05
-0.0839872
-1.59809
1.61294
-4.16304e-05
0.0691838
-0.0261624
-1.71171
1.75031
-0.000461354
0.0572078
-0.0214864
-0.0262311
-0.0214575
0.0979852
-1.71268
1.68312
-0.000753719
-0.0676645
0.100852
-1.60946
-0.00135346
1.59893
-0.0889628
0.07675
-1.58448
-0.0014443
1.58157
-0.0723944
0.0553324
-1.57697
1.57606
-0.0529274
-0.00149453
0.0556984
-1.57442
1.57266
-0.0524512
-0.0014881
0.0498304
-1.5724
1.57179
-0.0477529
-0.00146854
0.0461654
-1.57094
1.57046
-0.0442193
-0.00146412
-1.5681
0.171236
6.26691
-0.154297
-0.0125597
-1.56763
-1.56784
-1.56772
25.0761
-0.531256
-0.110205
-6.27033
-6.27017
-6.27199
-6.27061
25.0753
-0.513337
-0.108746
25.0707
-0.499407
-0.107087
25.0656
-0.491759
-0.105636
25.0612
-0.486465
-0.10455
25.0577
-0.482668
-0.103822
25.0551
-0.479822
-0.103554
25.0528
-0.477362
-0.103655
25.0515
-0.475802
-0.104101
25.0505
-0.474152
-0.104804
25.0498
-0.472384
-0.105733
25.0497
-0.47107
-0.106651
25.0498
-0.469476
-0.10767
25.0499
-0.467516
-0.10861
25.0505
-0.466022
-0.10956
25.0514
-0.464227
-0.110526
25.0527
-0.462237
-0.111537
25.0546
-0.459785
-0.112664
-0.457067
-0.113814
25.0057
-0.00617337
0.000209115
25.0141
0.00722536
0.000429263
25.027
0.0229949
0.000618207
25.0382
0.0467094
0.000752358
25.0535
0.0712014
0.000784941
25.077
0.0966829
0.000615243
25.1149
0.127387
8.20999e-05
25.1783
0.167425
-0.00125722
6.32045
0.229481
-0.00386418
6.31857
6.32483
6.31906
-0.088179
6.33656
0.0728357
-0.000773354
-0.0330724
6.41295
0.0874106
-0.00161156
-0.0342676
-0.0332763
-0.0339552
-6.36418
-0.0332652
6.51629
0.0754514
-0.00315611
-0.0260064
-0.0332257
-0.0260113
-6.47007
-0.00741211
-6.54656
6.51266
-0.00558494
-0.00549773
0.0148714
-0.00765775
0.0452174
0.0449496
-6.53452
6.51283
-0.122348
-0.0084798
0.0388193
0.0356486
0.0331365
0.0545016
-6.44843
6.41097
-0.17596
-0.0109992
0.0550994
0.0568801
0.0579499
0.0557341
-6.37127
6.33946
-0.173583
-0.012691
0.0544334
0.0547834
0.053129
0.0458382
-6.32178
6.31103
-0.154928
-0.013797
0.0448759
0.044722
0.0440322
0.0437191
-6.30284
6.29738
-0.153602
-0.0144135
0.0434707
0.0432682
0.0430176
0.0406731
-6.29328
6.28818
-0.140644
-0.0146715
0.0401673
0.0401157
0.0394744
0.0377461
-6.28409
6.27873
-0.12862
-0.014722
0.0372776
0.0371505
0.0365419
0.139131
-6.27712
6.27519
-0.12252
-0.0146765
25.078
-0.398739
-0.121313
-6.27247
-6.27238
-6.27271
-6.27165
25.0683
-0.383326
-0.120298
25.0625
-0.37398
-0.119531
25.0577
-0.368022
-0.118988
25.054
-0.364167
-0.118616
25.0511
-0.361329
-0.118368
25.0488
-0.35938
-0.118233
25.0475
-0.357839
-0.118192
25.0465
-0.356555
-0.118214
25.046
-0.355369
-0.118266
25.0459
-0.353956
-0.118353
25.0462
-0.352991
-0.118397
25.0465
-0.35142
-0.118384
25.0478
-0.350333
-0.118399
25.049
-0.348831
-0.118445
25.0504
-0.347056
-0.118538
25.0526
-0.345664
-0.118753
25.0559
-0.344002
-0.119164
-0.342509
-0.119823
25.0063
-0.011078
4.78551e-05
25.016
-0.00262315
6.83023e-05
25.0248
0.0141642
-8.64829e-07
25.0412
0.03035
-0.00017382
25.0678
0.0451257
-0.000594543
25.1012
0.0645075
-0.00139937
25.1487
0.0824883
-0.00281434
25.2152
0.106028
-0.00529658
25.324
0.129859
-0.00948752
25.429
0.143698
-0.0162274
-0.0606372
-0.0563401
-0.0585055
-0.0572516
25.577
0.131365
-0.0263369
-0.0602031
-0.063651
-0.0618902
-0.0675077
25.7109
0.0536976
-0.0406015
-0.0416229
-0.0277756
-0.0458028
-0.0318651
25.5891
-0.157033
-0.0578597
0.0213689
0.124092
0.0196732
0.171606
25.4976
-0.237666
-0.0765876
0.0829852
0.116473
0.0986595
0.107591
25.4302
-0.247337
-0.0924382
0.0822365
0.147531
0.0311041
0.14616
25.3461
-0.35022
-0.103976
0.134147
0.136929
0.132692
0.134233
25.2641
-0.318708
-0.111056
0.127482
0.130936
0.125219
0.12805
25.1998
-0.327623
-0.11518
0.130125
0.126964
0.126853
0.123093
25.1579
-0.305767
-0.117428
0.119805
0.116599
0.116356
0.112305
25.1347
-0.286373
-0.118552
0.109086
0.108874
0.104345
0.105902
25.1152
-0.271867
-0.118952
0.104429
0.103766
0.101722
0.100427
25.0973
-0.262147
-0.118691
25.0858
-0.253303
-0.118471
25.0776
-0.247382
-0.11845
25.0712
-0.243017
-0.118614
25.0659
-0.240107
-0.118784
25.0621
-0.23848
-0.119022
25.0586
-0.236578
-0.119302
25.0561
-0.235704
-0.119606
25.0539
-0.234482
-0.119917
25.0526
-0.233808
-0.120207
25.052
-0.232887
-0.12047
25.0513
-0.231646
-0.120702
25.0516
-0.230824
-0.120817
25.0516
-0.22944
-0.120971
25.0521
-0.228251
-0.121092
25.0536
-0.227223
-0.121243
25.0555
-0.226126
-0.121478
25.0575
-0.224176
-0.121858
-0.22258
-0.122422
25.0065
-0.0156813
-9.78522e-05
25.0095
-0.0054586
-0.000207571
25.0171
0.00697399
-0.000443676
25.0365
0.0116449
-0.000811984
25.0618
0.0211415
-0.00152519
25.0911
0.037737
-0.00275073
25.1391
0.0389732
-0.00470466
25.2004
0.0521403
-0.00777262
25.2798
0.062712
-0.0125732
25.3758
0.066915
-0.0196424
25.4829
0.0534861
-0.0295248
25.563
0.0159545
-0.0426871
25.5408
-0.0769823
-0.0580635
25.5271
-0.150442
-0.0737957
25.4055
-0.0385359
-0.0874701
25.3245
-0.171428
-0.098008
25.2759
-0.165531
-0.104857
25.2158
-0.158422
-0.109274
25.1719
-0.15007
-0.111874
25.1404
-0.141522
-0.113426
25.1169
-0.134054
-0.114349
25.0981
-0.128621
-0.114778
25.0842
-0.124295
-0.115116
25.0737
-0.12138
-0.115436
25.0657
-0.119237
-0.115827
25.0597
-0.117947
-0.116141
25.0545
-0.116827
-0.116492
25.051
-0.116209
-0.116842
25.0484
-0.115975
-0.117094
25.0465
-0.115306
-0.117299
25.0453
-0.115156
-0.117419
25.0443
-0.114498
-0.117456
25.0443
-0.114292
-0.11737
25.0443
-0.1136
-0.117223
25.0452
-0.113259
-0.117043
25.0462
-0.112424
-0.11683
25.0477
-0.112062
-0.116634
25.0495
-0.111442
-0.116519
25.0525
-0.110627
-0.116563
-0.110784
-0.116862
24.9868
-0.000158785
24.9816
-0.000293104
24.9891
-0.00062437
25.0016
-0.00102772
25.0244
-0.00190046
25.0652
-0.00325314
25.1092
-0.00538125
25.1696
-0.00867934
25.2455
-0.0136758
25.3327
-0.0207148
25.4158
-0.0301836
25.4736
-0.0422732
25.4522
-0.0560396
25.3714
-0.0699988
25.4148
-0.0823894
25.3355
-0.0924952
25.2689
-0.0993144
25.2139
-0.103636
25.17
-0.106319
25.1364
-0.10801
25.1115
-0.109131
25.0927
-0.109862
25.0788
-0.110408
25.0682
-0.110855
25.0604
-0.111383
25.0543
-0.111871
25.0498
-0.112363
25.0465
-0.112887
25.0438
-0.113242
25.042
-0.113561
25.0407
-0.113807
25.0401
-0.113906
25.0397
-0.113878
25.0399
-0.113787
25.0403
-0.113691
25.0414
-0.113542
25.0427
-0.113389
25.0446
-0.113301
25.0473
-0.113364
-0.113683
24.9957
0.00141572
0.00282414
24.989
0.0041685
0.00575888
24.9783
0.0067791
0.00913804
24.9624
0.0100279
0.0132692
24.9412
0.0130764
0.0184975
24.912
0.0181146
0.0252621
24.87
0.0267976
0.0339599
24.8124
0.0372483
0.0450058
24.7563
0.0293288
0.0586928
24.7193
0.00211616
0.0753086
24.6935
-0.0183396
0.0941473
24.6303
0.00852592
0.114649
24.6587
-0.0934189
0.13543
24.777
-0.193385
0.155104
24.8109
-0.117351
0.171786
24.8363
-0.11551
0.184693
24.8604
-0.119078
0.194167
24.8798
-0.118082
0.201125
24.8961
-0.117798
0.206255
24.9225
-0.130015
0.210139
24.9489
-0.131575
0.213079
24.9694
-0.126936
0.215547
24.9856
-0.123791
0.21775
24.9993
-0.122173
0.219789
25.0108
-0.120847
0.221716
25.0209
-0.12025
0.223537
25.0296
-0.11957
0.225234
25.037
-0.119055
0.226774
25.0437
-0.118905
0.228164
25.0498
-0.11883
0.229395
25.0551
-0.11854
0.230428
25.0596
-0.118262
0.231257
25.064
-0.118491
0.231855
25.0683
-0.118696
0.232302
25.0722
-0.11838
0.232504
25.0761
-0.118611
0.232568
25.08
-0.118581
0.232329
25.084
-0.118642
0.231969
25.0887
-0.118986
0.231298
-0.119222
0.229808
24.9958
0.00287726
0.00275223
24.9891
0.00835616
0.00561103
24.9779
0.0141551
0.00891417
24.962
0.0201248
0.0129779
24.9404
0.0266952
0.0181479
24.9129
0.0344089
0.0248854
24.8799
0.0445996
0.033624
24.8372
0.0593227
0.0448904
24.7741
0.0648753
0.0591631
24.6979
0.0420264
0.0768058
24.6539
-0.0211618
0.0974455
24.5912
0.0122894
0.120418
24.6262
-0.198935
0.14383
24.7589
-0.407702
0.165871
24.8409
-0.289907
0.183992
24.9101
-0.282119
0.197698
24.9611
-0.272771
0.207674
25.0015
-0.264919
0.214806
25.0463
-0.271917
0.220005
25.0779
-0.272998
0.223754
25.0963
-0.262918
0.226539
25.1095
-0.254316
0.228818
25.1186
-0.248012
0.230862
25.1256
-0.245197
0.232702
25.1314
-0.243414
0.23441
25.1355
-0.241821
0.236028
25.1384
-0.240634
0.237586
25.1411
-0.240593
0.23907
25.143
-0.240326
0.24046
25.1443
-0.240217
0.241723
25.1455
-0.240449
0.242827
25.1467
-0.240718
0.243747
25.1472
-0.240747
0.244514
25.1477
-0.241248
0.245067
25.1487
-0.241746
0.245424
25.1493
-0.241757
0.245574
25.1504
-0.242326
0.245501
25.1521
-0.242982
0.245199
25.154
-0.243227
0.24464
-0.243981
0.243226
24.9958
0.00439223
0.00260469
24.9894
0.0124968
0.00531346
24.9782
0.0215191
0.00845993
24.9619
0.0310083
0.0123623
24.9391
0.0416241
0.0173815
24.9093
0.0533391
0.024008
24.8713
0.0674946
0.03278
24.8248
0.0851099
0.0443826
24.759
0.102315
0.0596015
24.664
0.0989366
0.0791273
24.5852
0.00599883
0.10316
-0.00380695
0.00679662
-0.00171817
24.7173
-0.0368718
0.130435
-0.0574763
-0.0349078
-0.0550599
24.5748
0.0226774
0.158397
-0.0939816
0.025677
-0.0903821
24.7378
-0.213308
0.184662
-0.122848
-0.209343
-0.118326
24.8299
-0.127317
0.204442
-0.119934
-0.122766
-0.114878
24.8909
-0.116534
0.218646
-0.114954
-0.111936
-0.109729
24.9447
-0.113459
0.228752
-0.112675
-0.108533
-0.1074
25.0091
-0.115393
0.235764
-0.114105
-0.110387
-0.10886
25.0503
-0.111776
0.2406
-0.110431
-0.106971
-0.106136
25.0754
-0.108388
0.243775
-0.106825
-0.104405
-0.102498
25.0938
-0.406742
0.245691
25.1072
-0.394089
0.247193
25.1164
-0.384205
0.24852
25.1234
-0.380184
0.250394
25.1287
-0.37748
0.251885
25.1324
-0.375196
0.253449
25.1352
-0.37339
0.254393
25.1365
-0.372514
0.255508
25.137
-0.372082
0.25654
25.1378
-0.372714
0.257489
25.1373
-0.372279
0.258333
25.1368
-0.372985
0.259065
25.1368
-0.373665
0.25943
25.1359
-0.374004
0.26016
25.135
-0.374721
0.260479
25.1345
-0.375392
0.260629
25.1342
-0.376264
0.260565
25.1342
-0.377187
0.260246
25.1351
-0.378205
0.259661
-0.379086
0.258244
24.9968
0.00559639
0.00237983
24.9906
0.0165654
0.00485963
24.9797
0.0289302
0.00775251
24.9635
0.04209
0.0113705
24.9405
0.0572191
0.0160818
24.9075
0.0759967
0.02239
24.8628
0.097745
0.030964
24.8048
0.122786
0.0426405
24.7372
0.141617
0.0586037
6.14292
0.0379966
0.0803094
0.05355
0.0386874
0.0542482
6.16311
6.14318
6.16282
-0.011582
6.12568
0.0172695
0.0175918
-0.0152663
-6.11341
6.10132
-0.0327106
0.0231803
-0.0191058
-6.10498
6.09753
0.0200847
0.0290699
-0.0229806
-6.11269
6.14479
-0.257492
0.0349956
-0.025913
-6.16282
6.17693
-0.155016
0.0394792
-0.0279147
-6.19015
6.20115
-0.142132
0.0425265
-0.0293009
-6.21223
6.22662
-0.143262
0.044722
-0.030203
-6.23947
6.24663
-0.138592
0.0462296
-0.0307381
-6.25248
6.25763
-0.133373
0.0471478
-0.0309951
-6.26143
6.26544
-0.129122
0.0476876
25.1036
-0.142833
0.27047
-0.14317
-0.143303
-0.14146
-6.26936
-6.27323
-6.26903
-6.27284
25.1128
-0.5492
0.2706
25.1178
-0.533903
0.269739
25.1215
-0.529026
0.270643
25.1229
-0.524354
0.271644
25.1216
-0.520429
0.273071
25.1195
-0.518164
0.273992
25.116
-0.516524
0.275113
25.1114
-0.515495
0.276139
25.1055
-0.515413
0.277039
25.0995
-0.515143
0.277791
25.0928
-0.515556
0.278385
25.0856
-0.515735
0.278544
25.0783
-0.51643
0.27906
25.071
-0.517107
0.279054
25.0639
-0.518105
0.278939
25.0566
-0.518661
0.278457
25.0499
-0.519852
0.27763
25.0446
-0.521787
0.276345
-0.522751
0.274012
24.9984
0.00522696
0.00207928
24.9934
0.0197639
0.00424476
24.9839
0.0353198
0.00677301
24.9692
0.0521913
0.00995009
24.9471
0.072832
0.0141186
24.9149
0.0992238
0.0194988
24.866
0.13349
0.0275295
24.7931
0.177081
0.0383396
6.17355
0.227144
0.053687
6.16642
6.17419
6.16676
-0.00789459
6.15843
0.0490166
0.0120274
-0.0110693
6.13265
0.0169386
-6.16137
0.0201255
0.0113726
0.0201631
0.0112616
-0.040062
-0.0150226
-6.07955
6.04598
0.0231833
-0.00207601
0.00341912
-0.00226078
0.00356889
0.0226232
-0.0195617
-6.04431
6.05787
0.0303583
0.0519575
-0.040665
0.0515134
-0.0403672
-0.0470938
-0.024046
-6.09806
6.13881
0.0373209
-0.0514199
-0.129376
-0.0519329
-0.128971
0.307399
-0.026369
-6.16908
6.18007
0.0410325
-0.0504903
-0.053786
-0.0508028
-0.0534154
0.182734
-0.0279059
-6.1934
6.20774
0.0434401
-0.0514427
-0.0507147
-0.0515243
-0.0506144
0.174422
-0.028909
-6.22186
6.234
0.0452263
-0.0494936
-0.0495858
-0.0495561
-0.0495737
0.169717
-0.0293645
-6.24376
6.25095
0.0462739
-0.0463186
-0.0466607
-0.0467515
-0.0465353
0.162081
-0.0294675
-6.25738
6.26168
0.0467647
-0.0438357
-0.0443529
-0.0442198
-0.0440302
0.154752
-0.0293699
-6.26582
6.26804
0.0469197
-0.0418243
-0.0424401
-0.0421087
-0.0419489
0.148489
-6.27064
-0.0288456
6.27278
-0.162999
0.0468394
25.0536
-0.680706
0.270261
-6.27383
-6.26762
-6.27409
-6.26708
25.0303
-0.667231
0.265318
25.0045
-0.656628
0.260779
24.9774
-0.647664
0.256397
24.9505
-0.641573
0.252732
24.9233
-0.637287
0.249867
24.8967
-0.634111
0.24695
24.8708
-0.631936
0.244634
24.845
-0.630448
0.242563
24.8203
-0.629561
0.240647
24.7966
-0.629166
0.23859
24.7738
-0.629075
0.237094
24.7518
-0.6291
0.235309
24.7311
-0.629599
0.233512
24.7113
-0.630135
0.231637
24.6932
-0.630919
0.229525
24.6766
-0.632066
0.227001
24.662
-0.634076
0.22388
-0.637714
0.219629
25.0021
0.00169692
0.00172686
24.9999
0.02044
0.00349033
24.9922
0.0404228
0.00554453
24.9802
0.0604306
0.00811443
24.9627
0.0849306
0.0114678
24.9367
0.118103
0.0154741
24.8944
0.16507
0.0221702
24.823
0.233299
0.0307535
6.17255
0.339099
0.0431801
6.17173
6.1728
6.17186
-0.00619054
-0.0639472
6.14705
0.0859829
0.00963491
-0.00200546
-0.0191663
-1.52799
1.52274
0.0237506
0.00265847
-0.00290861
-0.0183549
-1.50441
1.49194
0.0299749
0.00372279
-0.00416465
-1.46962
0.0528281
1.47966
-0.0640962
0.00531953
-0.00534083
-1.52898
0.153775
1.54042
-0.166809
0.00687145
-0.0052896
-1.53668
0.0599048
-0.0631679
1.53849
0.00670654
-1.54755
-0.00558638
0.0592443
-0.0630489
0.00661993
1.55031
-0.00546906
0.0567152
-1.55613
1.55761
-0.059382
0.00664127
-0.00506611
0.0524738
-1.56068
1.56123
-0.054506
0.00653785
-0.00456503
0.0496327
-1.56186
1.56191
-0.0514594
0.00633617
-0.00414449
0.047209
-1.5612
1.56077
-0.0487786
0.00614774
-1.55445
-0.0148017
0.176962
6.15889
-0.167404
0.030258
-1.53738
-1.55454
-1.53755
23.8009
-0.799285
0.130778
-6.098
-5.78887
-6.08774
-5.78997
23.8223
-0.768798
0.131396
23.8399
-0.752928
0.130812
23.8561
-0.740005
0.128734
23.8707
-0.729778
0.126303
23.8837
-0.721564
0.123903
23.896
-0.714975
0.120781
23.9076
-0.709704
0.117639
23.9189
-0.70552
0.114281
23.9299
-0.702134
0.110756
23.9411
-0.699329
0.106899
23.9521
-0.697045
0.103493
23.9633
-0.695082
0.0998664
23.9745
-0.693394
0.096315
23.9858
-0.691924
0.0927841
23.9972
-0.690627
0.0891763
24.0087
-0.689463
0.0852617
24.0199
-0.688388
0.0805958
-0.68728
0.0742481
25.009
0.000398627
0.00131194
25.0097
0.0185202
0.00262986
25.0063
0.0418854
0.00413236
24.9995
0.0643663
0.00596085
24.9896
0.0909075
0.00826849
24.976
0.126697
0.0107536
24.9565
0.177042
0.0151429
24.9262
0.253528
0.0201727
6.21378
0.378834
0.0269698
6.22215
6.21387
6.22261
-0.00369272
-0.104039
6.19834
0.117388
0.00577705
-0.00113613
-0.0389391
-1.54201
1.53587
0.0447035
0.00150118
-0.00156124
-0.0811318
-1.50599
1.48765
0.0990657
0.00194409
-0.00018827
0.00456161
-0.0748839
0.0751158
-0.00481064
0.000205586
0.00237662
-0.181812
0.00638037
-0.0166856
-0.00506759
0.194809
-1.13416
0.00367395
0.051634
-0.0748195
-0.00543151
1.15911
0.00273223
0.0458849
-1.21854
1.23273
-0.0579685
-0.00484213
0.00260855
0.0481601
-1.27425
1.28755
-0.0597771
-0.00429809
0.00275204
0.0477244
-1.32082
1.33055
-0.0561284
-0.00407976
0.00285964
0.04774
-1.35418
1.36217
-0.0544416
-0.00414482
-1.4014
0.0154268
0.197654
5.82789
-0.219614
-0.027432
-1.49865
-1.39652
-1.49735
24.1712
-0.696109
-0.203336
-5.88441
-6.17516
-5.91506
-6.1779
24.1878
-0.667532
-0.196753
24.2045
-0.656519
-0.189567
24.2222
-0.648301
-0.183656
24.2404
-0.641568
-0.178734
24.2589
-0.636432
-0.174612
24.2779
-0.632668
-0.171244
24.2971
-0.629738
-0.168565
24.3164
-0.627372
-0.16648
24.3355
-0.625289
-0.164871
24.3542
-0.62351
-0.163647
24.3726
-0.622043
-0.162686
24.3908
-0.620719
-0.161979
24.4084
-0.619187
-0.161422
24.4254
-0.617591
-0.161032
24.4415
-0.61591
-0.16087
24.4569
-0.6141
-0.161152
24.4713
-0.611684
-0.162147
-0.607573
-0.16421
25.0082
-0.00455067
0.000854637
25.0152
0.0106895
0.00172872
25.0218
0.0339906
0.00265125
25.0256
0.0587397
0.00368438
25.0248
0.0891988
0.00485261
25.0291
0.119462
0.00588598
25.0411
0.161205
0.00742915
25.0695
0.220655
0.00842515
6.27604
0.30986
0.0086074
6.28829
6.27762
6.29183
-0.000919889
-0.108919
6.28366
0.100808
0.00142674
-0.000147579
-0.0440715
-1.57794
1.57968
0.0423066
0.000176594
0.000150861
-0.0809637
-1.60017
1.61663
0.064626
-0.000247987
0.000754277
-0.0260143
-1.71165
1.74912
0.057886
2.80321e-05
-0.0214728
-0.026884
-0.0217001
0.00202962
0.110137
-1.7094
1.6789
-0.078828
-0.00276621
0.105392
-1.60959
0.00393554
1.59874
-0.0933846
-0.00504215
0.00521453
0.0750635
-1.58401
-0.00659477
1.58184
-0.0714934
0.00575953
0.0550243
-1.57846
1.57692
-0.0517483
-0.00748912
0.00591751
0.0568204
-1.57599
1.57452
-0.0533876
-0.0078852
0.00596236
0.0511537
-1.57362
1.57294
-0.0484302
-0.00800654
0.00594134
0.0475786
-1.57005
1.57033
-0.0458535
-0.00794265
-1.57034
0.0250071
0.181581
6.27554
-0.157872
-0.0416618
-1.57046
-1.57056
-1.57122
25.0858
-0.5305
-0.254032
-6.27765
-6.27136
-6.28218
-6.27631
25.0822
-0.522256
-0.250393
25.0764
-0.511297
-0.246456
25.0711
-0.504908
-0.243743
25.0667
-0.499787
-0.241912
25.0637
-0.496566
-0.240755
25.0617
-0.493925
-0.240238
25.0604
-0.491814
-0.240293
25.0597
-0.489984
-0.240812
25.0593
-0.488029
-0.241672
25.0591
-0.486308
-0.242768
25.0595
-0.484846
-0.244228
25.0597
-0.483274
-0.245274
25.0595
-0.481065
-0.246566
25.0598
-0.479561
-0.247863
25.0601
-0.47749
-0.249286
25.0606
-0.475196
-0.250961
25.0614
-0.472127
-0.25302
-0.468789
-0.255312
25.0068
-0.00894851
0.000457115
25.0168
0.000228789
0.0008913
25.0307
0.019313
0.00125353
25.0389
0.0496084
0.00153154
25.0563
0.0707135
0.00162133
25.0797
0.0951605
0.00132675
25.1174
0.122899
0.000292544
25.1826
0.156006
-0.00216941
6.32928
0.197104
-0.00724586
6.31828
6.33368
6.31707
-0.0856224
0.00145463
6.34755
0.0681292
-0.00225852
-0.032847
0.00330214
6.42075
0.0877951
-0.00488717
-0.0310086
-0.0331062
-0.0302151
-6.37982
-0.0294071
0.00659523
6.49222
0.081466
-0.00985836
-0.0287103
-0.0285119
-0.0309888
-6.45273
-0.00906279
0.0112762
-6.54026
6.4991
-0.0589399
-0.0177093
0.0632398
-0.0101922
0.0627865
0.0353232
0.0177732
-6.49185
6.47361
-0.145305
-0.0272212
0.0518028
0.0348103
0.0512763
0.0584549
-6.45025
0.023571
6.40669
-0.184006
-0.0355608
0.0578523
0.0619722
0.0613565
0.0562106
0.0272843
-6.36668
6.33885
-0.177581
-0.0411237
0.0541847
0.0554146
0.0534149
0.0457
0.0295273
-6.32526
6.31849
-0.158148
-0.044572
0.0449213
0.0450119
0.0443222
0.0441835
0.0307063
-6.31469
6.30723
-0.152953
-0.0464538
0.0446131
0.0434993
0.0439093
0.0433232
0.0310972
-6.29896
6.29036
-0.142268
-0.0472328
0.0408337
0.0426919
0.0402094
0.0383969
0.0310712
-6.28319
6.27558
-0.125393
-0.0473338
0.0354572
0.0388396
0.0366159
0.137253
-6.2742
0.0308625
6.27449
-0.121334
-0.0470415
25.0798
-0.384409
-0.259307
-6.2729
-6.27097
-6.27326
-6.27067
25.0712
-0.377484
-0.256472
25.0654
-0.370877
-0.254142
25.0605
-0.366133
-0.252835
25.0571
-0.363039
-0.251959
25.0541
-0.360589
-0.251347
25.0521
-0.359172
-0.250955
25.0509
-0.358068
-0.250729
25.0499
-0.356615
-0.250613
25.0499
-0.355688
-0.250557
25.0499