/*--------------------------------*- C++ -*----------------------------------*\
| =========                 |                                                 |
| \\      /  F ield         | OpenFOAM: The Open Source CFD Toolbox           |
|  \\    /   O peration     | Version:  2306                                  |
|   \\  /    A nd           | Website:  www.openfoam.com                      |
|    \\/     M anipulation  |                                                 |
\*---------------------------------------------------------------------------*/
FoamFile
{
    version     2.0;
    format      ascii;
    arch        "LSB;label=32;scalar=64";
    class       volVectorField;
    location    "0.6";
    object      U;
}
// * * * * * * * * * * * * * * * * * * * * * * * * * * * * * * * * * * * * * //

dimensions      [0 1 -1 0 0 0 0];

internalField   nonuniform List<vector> 
111542
(
(99.9933 0.00519659 0.00301839)
(99.9709 0.0105715 0.00626174)
(99.9296 0.0161093 0.00984072)
(99.8681 0.0219734 0.0142131)
(99.785 0.0279149 0.0197545)
(99.6781 0.0331587 0.0269065)
(99.5465 0.0358404 0.0359274)
(99.3924 0.0329844 0.0473033)
(99.2252 0.0199468 0.0615275)
(99.065 -0.00968527 0.0786219)
(98.9446 -0.0615537 0.0981298)
(98.9048 -0.133283 0.119191)
(98.9714 -0.206661 0.140789)
(99.1351 -0.261982 0.160838)
(99.3512 -0.288703 0.177679)
(99.5714 -0.296572 0.190918)
(99.7693 -0.294565 0.200684)
(99.9376 -0.287331 0.207814)
(100.077 -0.277872 0.213052)
(100.189 -0.26834 0.217111)
(100.277 -0.260148 0.220197)
(100.345 -0.253591 0.222745)
(100.397 -0.248436 0.22526)
(100.437 -0.245012 0.227683)
(100.468 -0.243077 0.230089)
(100.493 -0.242117 0.232631)
(100.512 -0.242163 0.234996)
(100.526 -0.242981 0.237112)
(100.536 -0.244157 0.239042)
(100.544 -0.245464 0.240706)
(100.551 -0.246785 0.242003)
(100.555 -0.248096 0.242831)
(100.559 -0.249204 0.243326)
(100.562 -0.25008 0.243521)
(100.566 -0.250768 0.243419)
(100.57 -0.251347 0.243025)
(100.575 -0.251943 0.242308)
(100.581 -0.252491 0.241452)
(100.59 -0.253084 0.240545)
(100.605 -0.253992 0.239742)
(99.9936 0.0154905 0.00295582)
(99.9716 0.0314596 0.0060576)
(99.9307 0.0483144 0.00959105)
(99.8696 0.0664607 0.0139097)
(99.7857 0.0853296 0.01938)
(99.6755 0.102849 0.0264314)
(99.5357 0.114099 0.0355091)
(99.3657 0.110257 0.0471297)
(99.1716 0.07668 0.0617731)
(98.9724 -0.00770061 0.0796275)
(98.8091 -0.160216 0.100468)
(98.7481 -0.374208 0.122799)
(98.8334 -0.59682 0.146268)
(99.043 -0.756031 0.16826)
(99.3041 -0.833558 0.186466)
(99.5528 -0.859706 0.200282)
(99.7657 -0.856753 0.210293)
(99.9415 -0.837871 0.217478)
(100.083 -0.812398 0.222682)
(100.194 -0.785955 0.22649)
(100.28 -0.762045 0.22924)
(100.346 -0.743277 0.231516)
(100.395 -0.729707 0.233727)
(100.432 -0.720642 0.235997)
(100.461 -0.713943 0.238349)
(100.483 -0.708373 0.240764)
(100.501 -0.704243 0.243123)
(100.514 -0.701577 0.245318)
(100.523 -0.699936 0.247275)
(100.53 -0.699018 0.248911)
(100.536 -0.698654 0.250165)
(100.54 -0.69876 0.251009)
(100.543 -0.699059 0.25148)
(100.546 -0.699474 0.25161)
(100.549 -0.700044 0.251428)
(100.553 -0.700869 0.250963)
(100.557 -0.70211 0.250246)
(100.563 -0.703694 0.24935)
(100.571 -0.705708 0.248362)
(100.583 -0.708303 0.247499)
(99.9939 0.0254336 0.00279888)
(99.9729 0.0517577 0.00572335)
(99.9337 0.0802969 0.00908599)
(99.8739 0.111952 0.0132221)
(99.7897 0.146491 0.0185051)
(99.6748 0.181609 0.0254008)
(99.5214 0.211004 0.0344605)
(99.322 0.221037 0.046329)
(99.0739 0.185045 0.0617007)
(98.7942 0.0545358 0.0811625)
(98.5426 -0.279542 0.105017)
(98.4312 -0.740778 0.132215)
(98.5551 -1.15666 0.157943)
(98.8599 -1.39192 0.182206)
(99.203 -1.48455 0.201667)
(99.5006 -1.50846 0.215755)
(99.7414 -1.4886 0.225476)
(99.9312 -1.44743 0.232065)
(100.077 -1.39985 0.236488)
(100.188 -1.35256 0.239251)
(100.27 -1.31048 0.240237)
(100.33 -1.27389 0.240856)
(100.374 -1.25314 0.242096)
(100.408 -1.24557 0.243942)
(100.436 -1.24298 0.246064)
(100.458 -1.2417 0.248212)
(100.474 -1.24126 0.250217)
(100.484 -1.24154 0.251946)
(100.492 -1.24213 0.253309)
(100.496 -1.24274 0.254256)
(100.498 -1.24322 0.254772)
(100.499 -1.24353 0.254872)
(100.498 -1.2436 0.254595)
(100.498 -1.24348 0.253993)
(100.496 -1.24331 0.253112)
(100.496 -1.24327 0.251995)
(100.496 -1.24359 0.250674)
(100.497 -1.24443 0.249198)
(100.501 -1.24584 0.247675)
(100.508 -1.2476 0.246434)
(99.9945 0.0345834 0.00255616)
(99.9756 0.0707518 0.00522249)
(99.9398 0.110936 0.0083006)
(99.8842 0.15723 0.0121178)
(99.803 0.210869 0.0170466)
(99.6869 0.271373 0.0235694)
(99.5213 0.334549 0.0323121)
(99.2854 0.38788 0.0440587)
(98.9503 0.401735 0.0597787)
(98.4519 0.201881 0.0806616)
(98.1949 0.0232914 0.0872664)
(97.8492 -0.630853 0.102465)
(97.9155 -1.42972 0.115887)
(98.3941 -1.93865 0.127556)
(98.8927 -2.08258 0.138953)
(99.2812 -2.1096 0.146487)
(99.594 -2.06886 0.150917)
(99.8311 -1.99288 0.153079)
(100.006 -1.90987 0.153843)
(100.136 -1.835 0.153789)
(100.304 -1.88567 0.242347)
(100.347 -1.81194 0.240085)
(100.365 -1.75992 0.240167)
(100.378 -1.72869 0.242323)
(100.392 -1.70858 0.245379)
(100.402 -1.6961 0.248467)
(100.404 -1.68961 0.251086)
(100.4 -1.68742 0.252996)
(100.391 -1.68805 0.254132)
(100.379 -1.69049 0.254522)
(100.363 -1.69399 0.254245)
(100.345 -1.69799 0.253404)
(100.325 -1.70211 0.252099)
(100.303 -1.70611 0.250412)
(100.281 -1.70992 0.248409)
(100.259 -1.71366 0.246127)
(100.237 -1.71757 0.243577)
(100.216 -1.72191 0.240777)
(100.197 -1.72682 0.237818)
(100.176 -1.73134 0.235126)
(99.9956 0.0422259 0.00222872)
(99.9802 0.0868846 0.00454774)
(99.9506 0.137734 0.0072262)
(99.9037 0.198616 0.0105605)
(99.8328 0.273384 0.0148912)
(99.7265 0.365804 0.020663)
(99.565 0.478743 0.0284815)
(99.3159 0.610977 0.0391294)
(98.8739 0.749326 0.0536233)
(98.5301 0.757359 0.0588214)
(97.7184 0.369915 0.0716548)
(96.9158 -0.691837 0.0877571)
(97.0125 -2.33776 0.100436)
(98.1393 -2.92998 0.109353)
(98.8557 -2.94739 0.120807)
(99.3151 -2.90268 0.127422)
(99.6761 -2.78105 0.129614)
(99.9211 -2.63632 0.128992)
(100.083 -2.49879 0.127306)
(100.185 -2.38575 0.125791)
(100.255 -2.32114 0.125979)
(100.209 -2.43996 0.203207)
(100.103 -2.42786 0.201728)
(100.003 -2.39916 0.202402)
(99.912 -2.3654 0.203675)
(99.8223 -2.33584 0.20443)
(99.7313 -2.31196 0.204089)
(99.6399 -2.2927 0.202562)
(99.5489 -2.27713 0.200055)
(99.4591 -2.26463 0.196877)
(99.3711 -2.25462 0.193323)
(99.2857 -2.24652 0.189624)
(99.2035 -2.23985 0.185916)
(99.1251 -2.23421 0.18225)
(99.0505 -2.22941 0.178612)
(98.98 -2.22537 0.174944)
(98.9137 -2.22225 0.171148)
(98.8521 -2.22052 0.167131)
(98.7968 -2.22118 0.162862)
(98.7422 -2.22649 0.158626)
(99.9971 0.0474536 0.00182028)
(99.9867 0.0981461 0.00370807)
(99.9667 0.157117 0.0058712)
(99.9342 0.230065 0.00854816)
(99.8836 0.323923 0.0120026)
(99.8045 0.448095 0.0165682)
(99.6776 0.616345 0.0226918)
(99.4664 0.84913 0.0309256)
(99.0471 1.17814 0.0419277)
(98.6383 1.34118 0.0462287)
(97.685 1.48532 0.0441298)
(95.5789 0.72056 0.0402661)
(94.386 -3.41751 0.0532758)
(98.2091 -4.68409 0.0406754)
(98.7207 -3.8337 0.0530542)
(99.276 -3.74838 0.0260756)
(99.6736 -3.51332 0.00618036)
(99.8591 -3.25529 0.0144256)
(99.9142 -3.03358 0.0414062)
(99.8742 -2.84127 0.0675499)
(98.8569 -2.56623 0.0714056)
(95.3144 -2.17218 0.0891847)
(95.389 -2.24349 0.103649)
(95.4746 -2.27435 0.111787)
(95.5381 -2.28605 0.115552)
(95.583 -2.29299 0.115959)
(95.6178 -2.29966 0.11357)
(95.6468 -2.30735 0.108951)
(95.6727 -2.31665 0.102739)
(95.6975 -2.32761 0.0955781)
(95.7231 -2.33978 0.0880418)
(95.751 -2.35243 0.0805817)
(95.7817 -2.3648 0.0734945)
(95.8153 -2.37626 0.0669302)
(95.8516 -2.3864 0.0609029)
(95.8902 -2.39507 0.0553122)
(95.9305 -2.4024 0.0499537)
(95.9722 -2.40892 0.0445457)
(96.014 -2.41583 0.0387845)
(96.0621 -2.4261 0.0326088)
(99.9989 0.0494195 0.00135794)
(99.995 0.102558 0.0027703)
(99.9872 0.16532 0.0043457)
(99.9743 0.244665 0.00623598)
(99.9536 0.349708 0.00858831)
(99.9203 0.494129 0.0115613)
(99.8662 0.700094 0.015316)
(99.777 1.00632 0.0199431)
(99.6048 1.48636 0.0253235)
(99.3373 1.888 0.0276163)
(98.6186 2.8271 0.0252162)
(95.4727 5.82693 0.0225618)
(77.1279 -4.32392 0.0481992)
(102.762 -10.2953 0.0215772)
(52.3636 -3.2784 -1.05578)
(74.7863 -4.40642 -0.327479)
(78.3365 -3.51792 -0.224243)
(80.8105 -3.04175 -0.126042)
(82.845 -2.76635 -0.048479)
(84.7611 -2.67345 0.00662332)
(92.0043 -3.39945 -0.0887498)
(96.0237 -3.15937 -0.151723)
(96.1621 -3.0346 -0.150968)
(96.3069 -2.94168 -0.148171)
(96.4234 -2.86984 -0.144902)
(96.5218 -2.81186 -0.141568)
(96.6136 -2.76523 -0.138454)
(96.7028 -2.72857 -0.135832)
(96.7897 -2.70032 -0.133844)
(96.8743 -2.67872 -0.132476)
(96.9565 -2.66208 -0.131614)
(97.036 -2.64886 -0.131103)
(97.1128 -2.63782 -0.130794)
(97.1868 -2.62801 -0.130573)
(97.258 -2.61878 -0.130386)
(97.3266 -2.60975 -0.130263)
(97.393 -2.60065 -0.130341)
(97.4574 -2.59127 -0.130846)
(97.52 -2.58108 -0.132065)
(97.5944 -2.56838 -0.134211)
(100.001 0.0475136 0.00097736)
(100.004 0.0987666 0.0018482)
(100.01 0.15976 0.00277019)
(100.019 0.237551 0.00380368)
(100.032 0.341436 0.00495474)
(100.052 0.48516 0.00617577)
(100.086 0.690241 0.00731091)
(100.148 0.992523 0.00796163)
(100.294 1.45411 0.00725425)
(100.343 1.86552 0.00714665)
(100.618 2.85137 0.0038408)
(102.425 5.38053 -0.000458535)
(111.066 3.97933 -0.0137353)
(109.071 -6.61516 0.0313981)
(102.786 -6.7028 -0.0319384)
(101.118 -4.90164 -0.0359607)
(100.675 -3.89164 -0.0379476)
(100.517 -3.33144 -0.0447749)
(100.448 -3.00691 -0.0517802)
(100.393 -2.82235 -0.0548027)
(100.302 -2.61545 -0.10363)
(100.318 -2.24 -0.2087)
(100.293 -2.1411 -0.206186)
(100.271 -2.08511 -0.20405)
(100.253 -2.05497 -0.202726)
(100.235 -2.03692 -0.201949)
(100.22 -2.02573 -0.201485)
(100.209 -2.01929 -0.201345)
(100.2 -2.01602 -0.201618)
(100.194 -2.01452 -0.202343)
(100.19 -2.01379 -0.203492)
(100.188 -2.01321 -0.204988)
(100.187 -2.01239 -0.206725)
(100.187 -2.01116 -0.208595)
(100.188 -2.00945 -0.210513)
(100.19 -2.00724 -0.21245)
(100.193 -2.00447 -0.214447)
(100.198 -2.00087 -0.216603)
(100.205 -1.99572 -0.219029)
(100.217 -1.98711 -0.221596)
(100.003 0.0416192 0.000470825)
(100.012 0.0866102 0.000861952)
(100.03 0.140181 0.0012139)
(100.06 0.208369 0.00145871)
(100.104 0.298786 0.00148901)
(100.17 0.421676 0.0010967)
(100.274 0.591249 -0.000115155)
(100.441 0.82695 -0.00286265)
(100.758 1.15303 -0.00844439)
(100.984 1.3926 -0.0104354)
(101.836 1.849 -0.0172542)
(103.446 1.75586 -0.0291673)
(105.221 -0.234759 -0.0429853)
(104.769 -2.80606 -0.0242716)
(102.977 -3.52059 -0.0466836)
(101.766 -3.29713 -0.0646303)
(101.147 -2.93876 -0.0745377)
(100.821 -2.63658 -0.079489)
(100.636 -2.412 -0.0820181)
(100.513 -2.24712 -0.0834763)
(100.423 -2.1165 -0.0845099)
(100.321 -1.84735 -0.233366)
(100.282 -1.81533 -0.231478)
(100.253 -1.7933 -0.230593)
(100.232 -1.77918 -0.230569)
(100.216 -1.76897 -0.231056)
(100.204 -1.76053 -0.231749)
(100.194 -1.75322 -0.232479)
(100.187 -1.74665 -0.233153)
(100.182 -1.74039 -0.233707)
(100.179 -1.7341 -0.234098)
(100.178 -1.72755 -0.23431)
(100.179 -1.7206 -0.234352)
(100.181 -1.71322 -0.234258)
(100.184 -1.70538 -0.234092)
(100.188 -1.69708 -0.233948)
(100.194 -1.68833 -0.23395)
(100.202 -1.67904 -0.234247)
(100.212 -1.66914 -0.235003)
(100.233 -1.65891 -0.236432)
(100.004 0.0322849 9.64432e-05)
(100.019 0.0671879 0.00013029)
(100.047 0.108611 -3.08347e-05)
(100.092 0.160926 -0.000466018)
(100.159 0.229214 -0.00135859)
(100.258 0.319336 -0.00303702)
(100.403 0.437553 -0.00603136)
(100.622 0.588244 -0.0111868)
(100.956 0.76747 -0.0198584)
(101.442 0.850892 -0.0337256)
(102.081 0.753076 -0.0543814)
(102.756 0.226834 -0.0827812)
(103.113 -0.755574 -0.115186)
(102.868 -1.57932 -0.145452)
(102.23 -1.87935 -0.176166)
(101.607 -1.87903 -0.200117)
(101.168 -1.78896 -0.215224)
(100.886 -1.68179 -0.223964)
(100.698 -1.58185 -0.228967)
(100.565 -1.4949 -0.231692)
(100.471 -1.42062 -0.23286)
(100.406 -1.3553 -0.232755)
(100.359 -1.30456 -0.232697)
(100.323 -1.26472 -0.233088)
(100.295 -1.23441 -0.233855)
(100.272 -1.21174 -0.234881)
(100.254 -1.19454 -0.236072)
(100.239 -1.18121 -0.237338)
(100.228 -1.17058 -0.23859)
(100.219 -1.16177 -0.239748)
(100.212 -1.15408 -0.240753)
(100.207 -1.14703 -0.241569)
(100.205 -1.14033 -0.24219)
(100.204 -1.13377 -0.242631)
(100.205 -1.12721 -0.242944)
(100.207 -1.12063 -0.243205)
(100.211 -1.11399 -0.24352)
(100.216 -1.10727 -0.244015)
(100.224 -1.10053 -0.244848)
(100.236 -1.09402 -0.24621)
(100.005 0.0204077 -0.000198516)
(100.024 0.0423777 -0.00049368)
(100.059 0.0684416 -0.00101041)
(100.114 0.100956 -0.00190813)
(100.195 0.142817 -0.00344373)
(100.311 0.19644 -0.00598051)
(100.474 0.263266 -0.0100834)
(100.702 0.340746 -0.0165283)
(101.011 0.415892 -0.0263752)
(101.411 0.449412 -0.0408256)
(101.875 0.385466 -0.0609777)
(102.304 0.150055 -0.087336)
(102.526 -0.266403 -0.117556)
(102.412 -0.690364 -0.147251)
(102.029 -0.92952 -0.174209)
(101.578 -0.985207 -0.195209)
(101.206 -0.95395 -0.209652)
(100.939 -0.898598 -0.218745)
(100.748 -0.842626 -0.224397)
(100.606 -0.792611 -0.227897)
(100.499 -0.750997 -0.230003)
(100.419 -0.720364 -0.231232)
(100.358 -0.700265 -0.232181)
(100.312 -0.688019 -0.233147)
(100.276 -0.681363 -0.234216)
(100.248 -0.678651 -0.235383)
(100.227 -0.678406 -0.236601)
(100.21 -0.679492 -0.237791)
(100.198 -0.68117 -0.238857)
(100.189 -0.682973 -0.239718)
(100.182 -0.684572 -0.240316)
(100.179 -0.685776 -0.240622)
(100.177 -0.686484 -0.240637)
(100.177 -0.686709 -0.240394)
(100.178 -0.686205 -0.23999)
(100.182 -0.68516 -0.239492)
(100.186 -0.683652 -0.239004)
(100.193 -0.681722 -0.238669)
(100.203 -0.679437 -0.238679)
(100.222 -0.676774 -0.239358)
(100.006 0.00697863 -0.000373609)
(100.026 0.0144575 -0.000780172)
(100.065 0.0233524 -0.0015268)
(100.125 0.03431 -0.00261804)
(100.212 0.0483672 -0.00450214)
(100.335 0.0660734 -0.00748113)
(100.504 0.0874257 -0.012159)
(100.73 0.110926 -0.0191979)
(101.02 0.131448 -0.0296471)
(101.369 0.136385 -0.0441901)
(101.741 0.105941 -0.063475)
(102.062 0.0197948 -0.0874466)
(102.228 -0.118386 -0.114591)
(102.164 -0.261243 -0.141998)
(101.896 -0.351663 -0.166202)
(101.541 -0.379253 -0.185584)
(101.213 -0.372937 -0.199656)
(100.957 -0.357133 -0.20891)
(100.765 -0.340905 -0.214895)
(100.619 -0.326431 -0.218806)
(100.508 -0.314343 -0.221459)
(100.424 -0.305 -0.223356)
(100.36 -0.297722 -0.224871)
(100.312 -0.291714 -0.226197)
(100.275 -0.286274 -0.227574)
(100.247 -0.281104 -0.229017)
(100.225 -0.27602 -0.230462)
(100.209 -0.27091 -0.231834)
(100.196 -0.265742 -0.233054)
(100.186 -0.260532 -0.234051)
(100.179 -0.255311 -0.234776)
(100.175 -0.250118 -0.235198)
(100.172 -0.245004 -0.235311)
(100.171 -0.24006 -0.235097)
(100.173 -0.235117 -0.234823)
(100.175 -0.230339 -0.234445)
(100.179 -0.225796 -0.234037)
(100.186 -0.221541 -0.233747)
(100.194 -0.217728 -0.233771)
(100.208 -0.21489 -0.234468)
(99.9938 0.00513455 0.00868281)
(99.9725 0.0103688 0.0179229)
(99.9332 0.0158632 0.028376)
(99.8747 0.0216772 0.0411563)
(99.7957 0.0275513 0.0573232)
(99.6937 0.0327016 0.0780921)
(99.5681 0.0354453 0.104517)
(99.4211 0.0328354 0.137975)
(99.2616 0.0202167 0.179698)
(99.1088 -0.00867991 0.229907)
(98.9946 -0.059306 0.287724)
(98.9589 -0.129733 0.350597)
(99.0261 -0.200895 0.414365)
(99.1866 -0.253938 0.473454)
(99.397 -0.279227 0.523205)
(99.6104 -0.286443 0.562309)
(99.8011 -0.284139 0.591415)
(99.9621 -0.276799 0.61268)
(100.094 -0.267327 0.628203)
(100.199 -0.258036 0.639831)
(100.28 -0.250084 0.648598)
(100.343 -0.243723 0.655707)
(100.39 -0.238807 0.662224)
(100.427 -0.235479 0.668259)
(100.455 -0.233542 0.673922)
(100.478 -0.232661 0.679401)
(100.496 -0.232667 0.68437)
(100.511 -0.233361 0.688814)
(100.522 -0.234476 0.692871)
(100.532 -0.23578 0.696456)
(100.54 -0.237112 0.699436)
(100.547 -0.23837 0.701678)
(100.553 -0.239471 0.70333)
(100.559 -0.240384 0.704399)
(100.564 -0.24112 0.704837)
(100.57 -0.241733 0.704597)
(100.576 -0.242288 0.703596)
(100.583 -0.242833 0.701999)
(100.592 -0.243462 0.699824)
(100.608 -0.244378 0.697091)
(99.994 0.0152727 0.00848118)
(99.9732 0.030926 0.0174225)
(99.9343 0.0475697 0.0276851)
(99.8761 0.0654879 0.0402698)
(99.7962 0.0841108 0.0562427)
(99.6908 0.101399 0.0768626)
(99.557 0.112717 0.103506)
(99.3942 0.109392 0.137738)
(99.2079 0.0769671 0.18101)
(99.0163 -0.0050968 0.2341)
(98.8591 -0.153583 0.296446)
(98.8022 -0.361238 0.365631)
(98.8879 -0.578565 0.436491)
(99.0927 -0.734491 0.501768)
(99.3465 -0.809342 0.555263)
(99.5873 -0.834552 0.595922)
(99.7927 -0.831532 0.625491)
(99.9614 -0.813051 0.646692)
(100.096 -0.788257 0.661911)
(100.201 -0.762954 0.672853)
(100.282 -0.740887 0.68072)
(100.343 -0.723818 0.687157)
(100.389 -0.711316 0.693012)
(100.424 -0.70263 0.698342)
(100.451 -0.69603 0.703187)
(100.473 -0.690664 0.707743)
(100.49 -0.686709 0.712095)
(100.503 -0.684254 0.716275)
(100.514 -0.683009 0.720256)
(100.522 -0.682648 0.723934)
(100.529 -0.682922 0.72719)
(100.534 -0.683632 0.729927)
(100.539 -0.684585 0.732125)
(100.543 -0.685692 0.733745)
(100.547 -0.686944 0.734734)
(100.552 -0.688381 0.735039)
(100.557 -0.690108 0.734612)
(100.563 -0.692186 0.733451)
(100.571 -0.69466 0.731555)
(100.584 -0.697531 0.729016)
(99.9943 0.0250361 0.00803209)
(99.9744 0.05093 0.0164896)
(99.9371 0.0790225 0.0262633)
(99.8801 0.11019 0.0383368)
(99.7997 0.144209 0.0538164)
(99.6896 0.178845 0.0740812)
(99.5423 0.20797 0.100811)
(99.3504 0.218215 0.136007)
(99.1108 0.183373 0.181836)
(98.8402 0.0557369 0.240156)
(98.5968 -0.271232 0.311528)
(98.4886 -0.72282 0.39242)
(98.6089 -1.12925 0.474622)
(98.9059 -1.35946 0.549293)
(99.2396 -1.45007 0.607793)
(99.5284 -1.47372 0.650108)
(99.7614 -1.45434 0.679553)
(99.9439 -1.41401 0.69969)
(100.084 -1.36751 0.71323)
(100.188 -1.32182 0.721835)
(100.266 -1.28328 0.725987)
(100.323 -1.25132 0.728996)
(100.367 -1.23288 0.732471)
(100.401 -1.22555 0.735952)
(100.43 -1.22225 0.738951)
(100.452 -1.22011 0.741571)
(100.467 -1.21905 0.744093)
(100.478 -1.21909 0.74667)
(100.485 -1.21989 0.749321)
(100.49 -1.22112 0.751984)
(100.492 -1.22253 0.754555)
(100.493 -1.22399 0.756926)
(100.493 -1.2254 0.758994)
(100.492 -1.22674 0.760658)
(100.49 -1.22809 0.761813)
(100.489 -1.2296 0.762342)
(100.488 -1.23148 0.762118)
(100.489 -1.2339 0.761027)
(100.492 -1.23692 0.759045)
(100.5 -1.24008 0.756453)
(99.9949 0.0340168 0.00733963)
(99.977 0.0695865 0.0150693)
(99.943 0.109099 0.024042)
(99.8899 0.154609 0.0352199)
(99.8122 0.207326 0.0497217)
(99.7008 0.266773 0.069003)
(99.5412 0.328818 0.0950028)
(99.3131 0.381103 0.130223)
(98.9875 0.394307 0.177801)
(98.5009 0.196992 0.241437)
(98.2444 0.014943 0.273412)
(97.9036 -0.642707 0.347147)
(97.9698 -1.43698 0.426178)
(98.4414 -1.94923 0.499956)
(98.9286 -2.09647 0.557057)
(99.309 -2.12743 0.597184)
(99.6154 -2.0899 0.624029)
(99.8472 -2.01639 0.640758)
(100.018 -1.93505 0.650383)
(100.144 -1.86127 0.655079)
(100.298 -1.90134 0.769657)
(100.342 -1.83596 0.765995)
(100.364 -1.78959 0.762586)
(100.38 -1.76144 0.760715)
(100.394 -1.74282 0.760457)
(100.401 -1.73107 0.761586)
(100.401 -1.72516 0.763862)
(100.393 -1.72364 0.76703)
(100.38 -1.72512 0.770797)
(100.362 -1.72861 0.774846)
(100.342 -1.73336 0.778876)
(100.318 -1.73883 0.782624)
(100.293 -1.74463 0.785882)
(100.267 -1.75054 0.78848)
(100.24 -1.75648 0.79027)
(100.212 -1.76253 0.791102)
(100.185 -1.76889 0.790785)
(100.16 -1.77585 0.789099)
(100.137 -1.78352 0.78586)
(100.113 -1.79091 0.781195)
(99.9959 0.0414944 0.00640834)
(99.9814 0.0853827 0.0131426)
(99.9533 0.13533 0.0209716)
(99.9086 0.195092 0.030771)
(99.8407 0.268422 0.0435744)
(99.7385 0.35896 0.0607611)
(99.5826 0.46942 0.0842542)
(99.3405 0.598386 0.116645)
(98.9084 0.732392 0.161323)
(98.5671 0.735075 0.186449)
(97.7642 0.345539 0.249559)
(96.9681 -0.712989 0.33019)
(97.0604 -2.34601 0.42261)
(98.1659 -2.94751 0.501526)
(98.8656 -2.97612 0.550574)
(99.319 -2.94235 0.581695)
(99.6752 -2.83224 0.600346)
(99.9165 -2.69954 0.608764)
(100.077 -2.57313 0.610506)
(100.181 -2.46871 0.608492)
(100.251 -2.4097 0.600839)
(100.164 -2.57115 0.696237)
(100.053 -2.54871 0.677887)
(99.9458 -2.51502 0.658722)
(99.8472 -2.47928 0.642901)
(99.748 -2.4495 0.631583)
(99.6471 -2.42657 0.624424)
(99.5458 -2.40904 0.620705)
(99.4454 -2.39571 0.619609)
(99.3466 -2.38577 0.620289)
(99.2501 -2.37854 0.621955)
(99.1565 -2.37343 0.623947)
(99.0664 -2.36997 0.625756)
(98.98 -2.36787 0.627022)
(98.8978 -2.36694 0.627485)
(98.8198 -2.36712 0.626923)
(98.7464 -2.36857 0.62504)
(98.6784 -2.37171 0.621438)
(98.6176 -2.37757 0.615631)
(98.5599 -2.3885 0.607424)
(99.9974 0.0465867 0.00529284)
(99.9877 0.0963803 0.0107981)
(99.9688 0.15426 0.0171487)
(99.938 0.225781 0.0250541)
(99.8896 0.317693 0.0353266)
(99.8136 0.439133 0.0490366)
(99.6907 0.603448 0.0676559)
(99.4847 0.830461 0.0931558)
(99.0723 1.15082 0.128018)
(98.6656 1.30992 0.148588)
(97.7167 1.44793 0.176268)
(95.6207 0.677995 0.227956)
(94.4215 -3.44435 0.320109)
(98.2206 -4.71012 0.395951)
(98.7241 -3.86413 0.389839)
(99.2657 -3.78502 0.398556)
(99.6467 -3.59331 0.400605)
(99.8104 -3.39576 0.381271)
(99.8398 -3.22972 0.346898)
(99.7716 -3.07165 0.31184)
(98.6044 -2.81418 0.311838)
(95.0197 -2.67321 0.292713)
(95.112 -2.70735 0.301279)
(95.2147 -2.70719 0.305381)
(95.2982 -2.69513 0.309252)
(95.3661 -2.68386 0.313817)
(95.4261 -2.67576 0.318176)
(95.4819 -2.6705 0.321363)
(95.5343 -2.66764 0.322845)
(95.5842 -2.66677 0.322488)
(95.6323 -2.66742 0.320439)
(95.6795 -2.66913 0.317034)
(95.7263 -2.67158 0.312613)
(95.7732 -2.67456 0.307506)
(95.8204 -2.67794 0.301938)
(95.8679 -2.68167 0.295957)
(95.9157 -2.68575 0.28934)
(95.9637 -2.69043 0.281514)
(96.0112 -2.69656 0.271411)
(96.0679 -2.70686 0.257146)
(99.9992 0.0485641 0.00398311)
(99.9956 0.100693 0.00808663)
(99.9885 0.162222 0.0127167)
(99.9765 0.239934 0.0183264)
(99.957 0.342693 0.0253769)
(99.9253 0.483812 0.0344052)
(99.8731 0.684862 0.0460379)
(99.7857 0.98367 0.0608153)
(99.6148 1.4523 0.0787421)
(99.3478 1.84787 0.0893994)
(98.6302 2.77497 0.100639)
(95.4957 5.74849 0.122664)
(77.2605 -4.42553 0.220887)
(46.7098 -1.34159 -1.29626)
(72.5968 -3.88561 -0.388812)
(77.8937 -3.39946 -0.157004)
(81.8502 -3.27198 -0.0606012)
(84.715 -3.21097 -0.057655)
(86.7912 -3.19178 -0.105994)
(92.8557 -3.70585 -0.296821)
(96.5758 -3.48034 -0.489188)
(96.659 -3.34709 -0.469531)
(96.7555 -3.24591 -0.450132)
(96.834 -3.16827 -0.434646)
(96.9049 -3.10623 -0.423385)
(96.9773 -3.05573 -0.415925)
(97.0531 -3.01439 -0.411773)
(97.131 -2.98028 -0.410291)
(97.2096 -2.95178 -0.410738)
(97.2881 -2.92758 -0.412414)
(97.3659 -2.90666 -0.414733)
(97.4422 -2.88825 -0.417255)
(97.5168 -2.87178 -0.419702)
(97.589 -2.85683 -0.421948)
(97.6587 -2.84308 -0.424045)
(97.7254 -2.8302 -0.426292)
(97.789 -2.81774 -0.429243)
(97.8492 -2.80487 -0.433774)
(97.9185 -2.78949 -0.440847)
(100.001 0.0466112 0.00267205)
(100.004 0.096852 0.00529875)
(100.01 0.156627 0.00810527)
(100.019 0.232784 0.0112471)
(100.032 0.334363 0.0147776)
(100.053 0.47473 0.0186197)
(100.086 0.674869 0.0224017)
(100.146 0.969846 0.0250859)
(100.287 1.42071 0.0241556)
(100.335 1.82604 0.0228864)
(100.606 2.79978 0.0137531)
(102.41 5.30379 -0.0118785)
(110.974 3.94963 -0.00335227)
(108.969 -6.53503 -0.126859)
(102.777 -6.69271 -0.270491)
(101.149 -4.90074 -0.365817)
(100.718 -3.92695 -0.413478)
(100.557 -3.40763 -0.430153)
(100.476 -3.10991 -0.431627)
(100.407 -2.93232 -0.428323)
(100.299 -2.72801 -0.511413)
(100.305 -2.34776 -0.681788)
(100.277 -2.24394 -0.667658)
(100.253 -2.18508 -0.651838)
(100.235 -2.15338 -0.638925)
(100.219 -2.13485 -0.629877)
(100.207 -2.12386 -0.624462)
(100.2 -2.11798 -0.622377)
(100.196 -2.11533 -0.623201)
(100.195 -2.11442 -0.626334)
(100.195 -2.11418 -0.631108)
(100.197 -2.11398 -0.636887)
(100.199 -2.11344 -0.643128)
(100.201 -2.11237 -0.649397)
(100.203 -2.11069 -0.65547)
(100.205 -2.10835 -0.661308)
(100.207 -2.10525 -0.667102)
(100.21 -2.10105 -0.673231)
(100.213 -2.09496 -0.680162)
(100.224 -2.08513 -0.687887)
(100.003 0.0407286 0.00136532)
(100.012 0.0848845 0.00263256)
(100.03 0.137373 0.00373197)
(100.059 0.204107 0.00454296)
(100.102 0.292491 0.00476417)
(100.167 0.412469 0.00379818)
(100.267 0.577905 0.000519961)
(100.43 0.807774 -0.00712432)
(100.74 1.12573 -0.0229453)
(100.962 1.36089 -0.0333702)
(101.801 1.8082 -0.0690216)
(103.396 1.7055 -0.135054)
(105.152 -0.276411 -0.231243)
(104.697 -2.81872 -0.346732)
(102.934 -3.53612 -0.450273)
(101.743 -3.31036 -0.52386)
(101.136 -2.95567 -0.567573)
(100.819 -2.65914 -0.589805)
(100.639 -2.43956 -0.599413)
(100.519 -2.27911 -0.601863)
(100.43 -2.15216 -0.59855)
(100.328 -1.86525 -0.74035)
(100.288 -1.83688 -0.731979)
(100.257 -1.81792 -0.724419)
(100.236 -1.80574 -0.718534)
(100.219 -1.7966 -0.714327)
(100.207 -1.78864 -0.711586)
(100.198 -1.78129 -0.710099)
(100.192 -1.77417 -0.709613)
(100.187 -1.76692 -0.709831)
(100.185 -1.75924 -0.71047)
(100.184 -1.75102 -0.711287)
(100.185 -1.74221 -0.712113)
(100.187 -1.73289 -0.712837)
(100.19 -1.72308 -0.713481)
(100.194 -1.71283 -0.714165)
(100.199 -1.70215 -0.715131)
(100.205 -1.69092 -0.716731)
(100.214 -1.6791 -0.719389)
(100.232 -1.66728 -0.723495)
(100.004 0.0316082 0.000285782)
(100.019 0.0658188 0.000388338)
(100.046 0.106377 4.99175e-05)
(100.09 0.157582 -0.00106641)
(100.155 0.224295 -0.00353032)
(100.251 0.312254 -0.0082771)
(100.392 0.427544 -0.0168278)
(100.604 0.574401 -0.0316469)
(100.929 0.748815 -0.056698)
(101.403 0.830119 -0.0974218)
(102.027 0.73384 -0.159277)
(102.688 0.21708 -0.246528)
(103.036 -0.742638 -0.352471)
(102.792 -1.54973 -0.466339)
(102.167 -1.84353 -0.563036)
(101.561 -1.8408 -0.631164)
(101.137 -1.75112 -0.673251)
(100.866 -1.6459 -0.697341)
(100.687 -1.54834 -0.710612)
(100.561 -1.46405 -0.717198)
(100.473 -1.39297 -0.719213)
(100.412 -1.33181 -0.717596)
(100.367 -1.28425 -0.716065)
(100.331 -1.24646 -0.7153)
(100.304 -1.2173 -0.714973)
(100.281 -1.19525 -0.715025)
(100.263 -1.17844 -0.715551)
(100.248 -1.16541 -0.716548)
(100.235 -1.15503 -0.717904)
(100.225 -1.14642 -0.719458)
(100.217 -1.1389 -0.721047)
(100.211 -1.13198 -0.722535)
(100.207 -1.12532 -0.723834)
(100.205 -1.11872 -0.724899)
(100.204 -1.11206 -0.725783)
(100.205 -1.10527 -0.726609)
(100.208 -1.09827 -0.727589)
(100.213 -1.09104 -0.729008)
(100.22 -1.08364 -0.731199)
(100.231 -1.07645 -0.734405)
(100.005 0.0199357 -0.00051858)
(100.023 0.0414774 -0.00126124)
(100.057 0.0669864 -0.00262573)
(100.111 0.0988638 -0.00508578)
(100.189 0.139722 -0.00940897)
(100.301 0.192055 -0.0166465)
(100.46 0.257255 -0.0284127)
(100.68 0.332883 -0.0470221)
(100.98 0.406148 -0.075616)
(101.368 0.438875 -0.117961)
(101.819 0.376145 -0.177633)
(102.236 0.145173 -0.256113)
(102.452 -0.26392 -0.348433)
(102.341 -0.678195 -0.442812)
(101.966 -0.908573 -0.525594)
(101.528 -0.959981 -0.587432)
(101.169 -0.927634 -0.628544)
(100.912 -0.872824 -0.654296)
(100.73 -0.817937 -0.670173)
(100.596 -0.769275 -0.679759)
(100.496 -0.729354 -0.685188)
(100.422 -0.700921 -0.687982)
(100.365 -0.682589 -0.689888)
(100.322 -0.671477 -0.691545)
(100.288 -0.665639 -0.693041)
(100.262 -0.663552 -0.694444)
(100.241 -0.663776 -0.695823)
(100.224 -0.66518 -0.697156)
(100.211 -0.667038 -0.698342)
(100.2 -0.668887 -0.699262)
(100.192 -0.670403 -0.699814)
(100.186 -0.671401 -0.699934)
(100.182 -0.671774 -0.699612)
(100.18 -0.671507 -0.698891)
(100.179 -0.670565 -0.697926)
(100.18 -0.669019 -0.696858)
(100.184 -0.666916 -0.695907)
(100.189 -0.664327 -0.695382)
(100.198 -0.661354 -0.695664)
(100.215 -0.658158 -0.697234)
(100.006 0.00680217 -0.000974233)
(100.025 0.0141702 -0.00213275)
(100.062 0.022832 -0.00406928)
(100.121 0.0335883 -0.00716619)
(100.205 0.0472543 -0.0124657)
(100.324 0.0644948 -0.0209046)
(100.487 0.0853107 -0.0341094)
(100.706 0.108254 -0.0542384)
(100.987 0.128196 -0.0841445)
(101.324 0.133044 -0.126408)
(101.685 0.103472 -0.183202)
(101.996 0.0197404 -0.254469)
(102.156 -0.114664 -0.335889)
(102.093 -0.253491 -0.418477)
(101.831 -0.340325 -0.491924)
(101.487 -0.366332 -0.549487)
(101.172 -0.359707 -0.589838)
(100.926 -0.34405 -0.616251)
(100.744 -0.328149 -0.633241)
(100.608 -0.314091 -0.644136)
(100.505 -0.302561 -0.651131)
(100.428 -0.293902 -0.655709)
(100.37 -0.287213 -0.65904)
(100.326 -0.281594 -0.661827)
(100.292 -0.276497 -0.664517)
(100.266 -0.27164 -0.667147)
(100.244 -0.266822 -0.669656)
(100.227 -0.261932 -0.671969)
(100.212 -0.25695 -0.67399)
(100.2 -0.251903 -0.675617)
(100.19 -0.246828 -0.676766)
(100.183 -0.241762 -0.677392)
(100.177 -0.23675 -0.677486)
(100.173 -0.23183 -0.677058)
(100.172 -0.227007 -0.67647)
(100.172 -0.222333 -0.675735)
(100.175 -0.217852 -0.675036)
(100.18 -0.213621 -0.674682)
(100.187 -0.209803 -0.675051)
(100.199 -0.206963 -0.676613)
(99.9943 0.00499581 0.0134709)
(99.9748 0.0100734 0.0277718)
(99.9386 0.0154239 0.0442507)
(99.8849 0.0210973 0.0644469)
(99.8123 0.0268514 0.0900118)
(99.7187 0.031961 0.122883)
(99.6033 0.0348738 0.165116)
(99.4685 0.0328071 0.218959)
(99.3225 0.0213511 0.286389)
(99.183 -0.00538452 0.368204)
(99.0803 -0.0527895 0.46326)
(99.0508 -0.118281 0.567285)
(99.1175 -0.184584 0.672515)
(99.2708 -0.233534 0.770209)
(99.4698 -0.256374 0.85276)
(99.6702 -0.262479 0.917855)
(99.8483 -0.25977 0.966888)
(99.9976 -0.25236 1.00308)
(100.119 -0.242984 1.02967)
(100.214 -0.233974 1.04944)
(100.287 -0.226375 1.06448)
(100.342 -0.220217 1.07671)
(100.383 -0.215493 1.08769)
(100.415 -0.212558 1.09811)
(100.439 -0.211237 1.10804)
(100.459 -0.211012 1.11731)
(100.476 -0.21149 1.12574)
(100.491 -0.212397 1.13327)
(100.504 -0.213479 1.13993)
(100.515 -0.214527 1.14565)
(100.526 -0.215403 1.15038)
(100.535 -0.216044 1.1541)
(100.544 -0.21643 1.15688)
(100.552 -0.216578 1.15874)
(100.559 -0.216529 1.15969)
(100.566 -0.216369 1.15973)
(100.573 -0.216194 1.15883)
(100.581 -0.216099 1.15699)
(100.589 -0.216202 1.15409)
(100.603 -0.216693 1.14993)
(99.9945 0.0148425 0.0131403)
(99.9754 0.0300334 0.0270838)
(99.9397 0.0462156 0.0432148)
(99.8862 0.0636648 0.0630792)
(99.8127 0.0818613 0.0883861)
(99.7158 0.0989182 0.121218)
(99.5926 0.110516 0.163954)
(99.4427 0.108462 0.219307)
(99.2711 0.0790406 0.289927)