/*
--------------------------------*- C++ -*----------------------------------*\
| =========                 |                                                 |
| \\      /  F ield         | OpenFOAM: The Open Source CFD Toolbox           |
|  \\    /   O peration     | Version:  2306                                  |
|   \\  /    A nd           | Website:  www.openfoam.com                      |
|    \\/     M anipulation  |                                                 |
\*---------------------------------------------------------------------------*/
FoamFile
{
    version     2.0;
    format      ascii;
    arch        "LSB;label=32;scalar=64";
    class       volScalarField;
    location    "0";
    object      yPlus;
}
// * * * * * * * * * * * * * * * * * * * * * * * * * * * * * * * * * * * * * //

dimensions      [0 0 0 0 0 0 0];

internalField   uniform 0;

boundaryField
{
    domainWalls
    {
        type            calculated;
        value           uniform 0;
    }
    fixedWall
    {
        type            symmetry;
    }
    inlet
    {
        type            calculated;
        value           uniform 0;
    }
    outlet
    {
        type            calculated;
        value           uniform 0;
    }
    NASAsc2-0410
    {
        type            calculated;
        value           nonuniform List<scalar> 
53952
(
195.73812
19.425465
19.50182
19.339784
19.409126
19.328293
19.434343
209.92783
121.16464
227.06498
209.92783
209.92783
227.06498
227.06497
209.92783
209.92783
227.06497
227.06497
209.92783
209.92783
227.06497
227.06497
209.92783
209.92661
227.06497
227.06369
209.91975
227.05612
209.14384
209.72251
121.16377
226.14473
11.540324
121.15884
234.95676
226.82854
11.640465
11.614508
236.37663
235.98333
209.92783
209.92783
11.640465
227.06497
11.640465
236.37663
236.37663
227.06497
11.640465
11.640465
236.37663
236.37663
209.92783
209.92783
11.640465
227.06497
11.640465
236.37663
236.37663
227.06497
11.640465
11.640465
236.37663
236.37663
209.92783
209.92783
11.640465
227.06497
11.640465
236.37663
236.37663
227.06497
11.640465
11.640465
236.37663
236.37663
209.92783
209.92783
11.640465
227.06497
11.640465
236.37663
236.37663
227.06497
11.640372
11.640465
236.37462
236.37663
179.20238
166.03103
11.639784
190.68784
205.5227
236.36374
199.43177
167.50421
178.75726
174.38064
178.70387
209.92767
121.15592
190.4223
208.32557
227.06483
11.777155
11.777152
209.92783
209.92783
11.777155
227.06497
11.777155
227.06497
11.777155
11.777155
209.92783
209.92783
11.777155
227.06497
11.777155
227.06497
11.777155
11.777155
209.92783
209.92783
11.777155
227.06497
11.777155
227.06497
11.777155
11.777155
209.92783
209.92783
11.777155
227.06497
11.777155
227.06498
11.777114
11.777155
209.14415
11.776806
226.14537
11.720131
194.41672
209.92662
121.15713
201.49368
208.97116
208.37856
11.719774
225.95861
220.33438
11.759431
226.59161
192.46247
212.79051
184.85082
175.25478
227.06369
11.76419
11.777114
11.81432
11.640449
11.814317
11.80207
11.640328
11.814282
185.52899
236.37629
185.52869
185.32766
236.37394
185.52709
209.92783
209.92783
11.81432
11.640465
11.81432
227.06497
11.777155
11.777155
11.640465
11.81432
11.81432
185.52898
236.37663
185.52898
236.37663
185.52898
185.52898
227.06497
11.777155
11.777155
11.81432
11.640465
11.81432
11.81432
11.640465
11.81432
185.52898
236.37663
185.52898
185.52898
236.37663
185.52898
209.92783
209.92783
11.81432
11.640465
11.81432
227.06497
11.777155
11.777155
11.640465
11.81432
11.81432
185.52898
236.37663
185.52898
236.37663
185.52898
185.52898
227.06497
11.777155
11.777155
11.81432
11.640465
11.81432
11.81432
11.640465
11.81432
185.52898
236.37663
185.52898
185.52898
236.37663
185.52898
209.92783
209.92783
11.81432
11.640465
11.81432
227.06497
11.777155
11.777155
11.640465
11.81432
11.81432
185.52898
236.37663
185.52898
236.37663
185.52898
185.52898
227.06497
11.777155
11.777155
11.81432
11.640465
11.81432
11.81432
11.640465
11.81432
185.52898
236.37663
185.52898
185.52898
236.37663
185.52898
209.92783
209.92783
11.81432
11.640465
11.81432
227.06497
11.777155
11.777155
11.640465
11.81432
11.81432
185.52898
236.37663
185.52898
236.37663
185.52898
185.52898
227.06498
11.777155
11.777155
11.814284
11.640465
11.81432
11.81432
11.640465
11.81432
185.52722
236.37663
185.52898
185.52898
236.37663
185.52899
207.42837
11.814007
11.562728
11.760902
224.08604
208.42225
11.571227
237.76581
209.21477
11.618476
185.51925
235.27535
184.91533
232.99148
183.75155
180.6611
181.15894
147.75639
148.5705
148.5705
170.01251
171.35738
171.35738
148.5705
148.5705
148.5705
148.5705
171.35738
171.35738
171.35738
171.35738
148.5705
148.5705
148.5705
148.5705
171.35738
171.35738
171.35738
171.35738
148.5705
148.5705
148.5705
148.5705
171.35738
171.35738
171.35738
171.35738
148.5705
148.5705
148.5705
148.5705
171.35738
171.35738
171.35739
171.35738
148.57049
148.57052
171.35738
171.35738
130.99257
148.57049
148.33328
131.31247
131.22249
148.57048
148.5705
131.31249
131.31249
131.31247
131.31249
170.08756
171.35738
171.04056
171.3574
171.35739
131.31249
131.31249
148.5705
148.5705
131.31249
131.31249
148.5705
148.5705
131.31249
131.31249
131.31249
131.31249
171.35738
171.35738
171.35738
171.35738
131.31249
131.31249
148.5705
148.5705
131.31249
131.31249
148.5705
148.5705
131.31249
131.31249
131.31249
131.31249
171.35738
171.35738
171.35738
171.35738
131.31249
131.31249
148.5705
148.5705
131.31249
131.31249
148.5705
148.5705
131.31249
131.31249
131.31249
131.31249
171.35738
171.35738
171.35738
171.35738
131.31249
131.31249
148.5705
148.5705
131.31249
131.31249
148.5705
148.5705
131.31249
131.31249
131.31249
131.31249
171.35738
171.35738
171.35738
171.35739
131.31249
131.3125
146.17151
148.57059
130.35688
131.31255
142.58621
128.93269
167.3044
171.35737
167.24363
161.09866
161.18168
121.16328
131.89428
121.16261
167.50863
161.67216
120.73966
121.16854
126.45362
133.03439
170.00669
149.33571
135.99244
168.74708
150.08479
148.5705
170.04708
148.5705
131.86265
128.45954
149.44784
169.9763
149.24764
171.04905
171.35739
171.04905
171.04907
171.35741
171.04907
148.5705
148.5705
170.04709
170.04709
148.5705
170.04709
148.5705
171.04905
171.35738
171.04905
171.35738
171.04905
171.04905
171.04905
171.35738
171.04905
171.04905
171.35738
171.04905
170.04709
148.5705
170.04709
148.5705
148.5705
170.04709
148.5705
170.04709
171.04905
171.35738
171.04905
171.35738
171.04905
171.04905
171.04905
171.35738
171.04905
171.04905
171.35738
171.04905
148.5705
148.5705
170.04709
170.04709
170.04709
148.5705
170.04709
148.5705
171.04905
171.35738
171.04905
171.35738
171.04905
171.04905
171.04905
171.35738
171.04905
171.04905
171.35738
171.04905
170.04709
148.5705
148.5705
148.57048
170.04709
148.57048
171.04905
171.35738
171.04905
171.35738
171.04905
171.04905
171.04906
171.3574
171.04907
171.04905
171.35741
171.04906
170.0471
148.5705
148.5705
170.04705
170.04709
171.04905
171.35739
171.04905
171.35739
171.04903
171.04906
122.9521
126.39155
148.5704
170.04683
148.56852
170.04598
131.31258
131.31209
148.5705
148.5705
170.04709
131.31249
131.31249
131.31248
131.31249
121.16588
131.89574
149.72094
171.04906
171.35728
171.04887
170.76755
171.35628
171.04749
171.04906
171.35739
171.04906
171.04906
171.35739
171.04906
131.31249
131.31249
148.5705
148.5705
170.04709
131.31249
131.31249
170.04709
148.5705
148.5705
170.04709
131.31249
131.31249
131.31249
131.31249
171.04905
171.35738
171.04905
171.04905
171.35738
171.04905
171.04905
171.35738
171.04905
171.04905
171.35738
171.04905
131.31249
131.31249
170.04709
148.5705
170.04709
148.5705
131.31249
131.31249
170.04709
148.5705
170.04709
170.04709
148.5705
131.31249
131.31249
131.31249
131.31249
171.04905
171.35738
171.04905
171.04905
171.35738
171.04905
171.04905
171.35738
171.04905
171.04905
171.35738
171.04905
131.31249
131.31249
170.04709
148.5705
148.5705
131.31249
131.31249
170.04709
148.5705
148.5705
170.04709
131.31249
131.31249
131.31249
131.31249
171.04905
171.35738
171.04905
171.04905
171.35738
171.04905
171.04905
171.35738
171.04905
171.04905
171.35738
171.04905
131.31249
131.31249
170.04709
148.5705
170.04709
148.5705
131.31249
131.31249
148.5705
170.04709
148.5705
131.31248
131.31248
131.31249
131.31249
171.04905
171.35738
171.04905
171.04905
171.35738
171.04905
171.04905
171.35738
171.04905
171.04905
171.35738
171.04905
131.31248
131.31248
166.3174
148.51034
148.55774
170.04192
131.29117
131.30849
119.53474
160.59929
120.74991
119.54663
167.12784
171.29764
170.97456
171.049
171.34983
171.03565
160.94254
119.58649
172.58519
172.11103
164.78886
166.40204
121.15861
121.16689
121.15838
130.35651
131.31249
131.29113
131.31249
131.31249
131.31248
131.31249
121.17159
121.17158
131.31249
131.31249
131.31249
131.31249
131.31249
131.31249
131.31249
131.31249
131.31249
131.31249
131.31249
131.31249
131.31249
131.31249
131.31249
131.31249
131.31249
131.31249
131.31249
131.31249
131.31249
131.31249
131.31249
131.31249
131.31249
131.31249
131.31249
131.31249
131.31249
131.31249
131.31249
131.31249
131.31249
131.31247
130.99266
131.31257
113.24953
120.02003
126.39274
118.91306
121.1516
121.15157
121.15516
121.15509
121.15516
121.15515
121.1516
121.15156
121.15158
121.15158
121.15511
121.15511
121.15158
121.15158
121.15511
121.15511
121.15158
121.15158
121.15511
121.15511
121.15158
121.15158
121.15511
121.15511
121.15158
121.15158
121.15511
121.15511
121.15158
121.15158
121.15511
121.15511
121.15158
121.15158
121.15511
121.15511
121.15158
121.15158
121.15511
121.15511
121.15158
121.15158
121.15511
121.15511
121.15158
121.15158
121.15511
121.15511
121.16542
121.16305
121.16548
121.15158
121.15158
121.15511
121.15511
121.15158
121.15158
121.15511
121.15511
121.15158
121.15158
121.15511
121.15511
121.15158
121.15158
121.15511
121.15511
121.15158
121.15158
121.15511
121.15511
121.15158
121.15158
121.15511
121.15511
121.15158
121.15158
121.15511
121.15511
121.15158
121.15158
121.15511
121.15511
121.15158
121.15158
121.15511
121.15511
121.15158
121.15158
121.15511
121.15511
121.15159
121.15159
121.1551
121.15512
121.15511
121.15511
121.15159
121.15159
121.15158
121.15158
121.15511
121.15511
121.15511
121.15511
121.15158
121.15158
121.15158
121.15158
121.15511
121.15511
121.15511
121.15511
121.15158
121.15158
121.15158
121.15158
121.15511
121.15511
121.15511
121.15511
121.15158
121.15158
121.15158
121.15158
121.15511
121.15511
121.15511
121.15511
121.15158
121.15158
121.16226
121.15158
121.15158
121.15511
121.15512
121.15158
121.15159
121.15511
121.15511
121.15158
121.15158
121.15511
121.15511
121.15158
121.15158
121.15511
121.15511
121.15158
121.15158
121.15511
121.15511
121.15158
121.15158
121.15511
121.15511
121.15158
121.15158
121.15511
121.15511
121.15158
121.15158
121.15511
121.15511
121.15158
121.15158
121.15511
121.15511
121.15158
121.15158
121.15511
121.15511
121.15159
121.15156
121.15513
121.15514
121.15514
121.15513
121.15158
121.15157
121.15158
121.15158
121.15511
121.15511
121.15511
121.15511
121.15158
121.15158
121.15158
121.15158
121.15511
121.15511
121.15511
121.15511
121.15158
121.15158
121.15158
121.15158
121.15511
121.15511
121.15511
121.15511
121.15158
121.15158
121.15158
121.15158
121.15511
121.15511
121.15511
121.15511
121.15158
121.15158
121.15158
121.15158
121.15512
121.15511
121.15511
121.15511
121.15159
121.1516
121.17304
121.16861
121.17325
121.15158
121.15158
121.15511
121.15511
121.15511
121.15511
121.15158
121.15158
121.15158
121.15158
121.15511
121.15511
121.15511
121.15511
121.15158
121.15158
121.15158
121.15158
121.15511
121.15511
121.15511
121.15511
121.15158
121.15158
121.15158
121.15158
121.15511
121.15511
121.15511
121.15511
121.15158
121.15158
121.15158
121.15158
121.15511
121.15511
121.15511
121.15511
121.15158
121.15158
121.15158
121.15159
121.15515
121.15516
121.15157
121.15159
121.15513
121.1551
121.15158
121.15158
121.15511
121.15511
121.15158
121.15158
121.15511
121.15511
121.15158
121.15158
121.15511
121.15511
121.15158
121.15158
121.15511
121.15511
121.15158
121.15158
121.15511
121.15511
121.15158
121.15158
121.15511
121.15511
121.15158
121.15158
121.15511
121.15511
121.15158
121.15158
121.15511
121.15511
121.1516
121.15159
121.15512
121.15512
121.1516
121.1516
120.56253
120.56594
120.56258
120.57153
120.56248
120.56248
128.93183
120.56249
120.56248
120.56249
120.56249
131.31255
120.56249
120.56249
120.56248
120.56249
131.30848
120.56249
120.56249
120.56248
120.56247
131.31249
120.56247
120.56246
120.56247
120.56247
131.31249
120.56247
120.56248
120.56249
120.56247
131.31248
120.56249
120.56248
120.56248
120.56248
131.31249
120.56247
120.56249
121.17096
121.16582
121.17089
121.15158
121.15158
121.15511
121.15511
121.15158
121.15158
121.15511
121.15511
120.56248
120.56246
131.31249
120.56247
120.56248
120.56248
120.56246
131.31249
120.56246
120.56246
120.56246
120.56246
131.31249
120.56246
120.56246
120.56246
120.56247
131.31249
120.56246
120.56247
120.56245
120.56246
131.31249
120.56244
120.56245
120.56244
120.56245
131.31249
120.56245
120.56245
120.56245
120.56247
131.31249
120.56246
120.56246
120.56246
120.56245
131.31249
120.56245
120.56245
121.15158
121.15158
121.15511
121.15511
121.15158
121.15158
121.15511
121.15511
120.56247
120.56245
131.31249
120.56244
120.56245
120.56249
120.56248
131.31249
120.56249
120.56249
120.56249
120.56248
131.31249
120.56249
120.56248
120.56249
120.5625
131.31249
120.56249
120.5625
120.5625
120.56248
131.31249
120.56249
120.56248
120.56249
120.56249
131.31249
120.56249
120.5625
120.56249
120.56249
131.31249
120.56249
120.56247
120.56248
120.56248
131.31249
120.56248
120.56249
121.15158
121.15158
121.15511
121.15511
121.15158
121.15158
121.15511
121.15511
120.56248
120.56247
131.31249
120.56249
120.56247
120.56248
120.56248
131.31249
120.56248
120.56249
120.56248
120.56248
131.31249
120.56248
120.56248
120.56248
120.56248
131.31249
120.56248
120.56249
131.31249
120.56248
120.56248
131.31249
120.56248
120.56247
120.56247
120.56248
131.31249
120.56248
120.56247
120.56248
120.56248
131.31249
120.56248
120.56248
121.15158
121.15158
121.15511
121.15511
121.15158
121.15158
121.15511
121.15511
131.31249
131.31249
131.31249
131.31249
131.31249
131.31249
131.31249
131.31249
121.15158
121.15158
121.15511
121.15511
121.15158
121.15158
121.15511
121.15511
131.31248
131.31248
131.22256
131.31209
97.474121
119.60264
100.27305
118.98566
119.93404
119.49351
99.690032
100.20889
118.67091
114.96091
99.523783
119.47897
97.192111
122.94229
119.55341
100.03638
119.57421
99.70913
119.90168
119.15737
119.53903
100.20174
99.802117
121.1516
121.15157
121.15515
121.15513
121.15517
121.15514
121.15158
121.1516
121.14922
120.72196
121.15484
121.15515
121.15132
121.15161
121.15251
120.69161
121.15512
121.15514
120.56247
120.56248
120.56247
120.56248
120.56247
120.56247
120.56247
120.56248
120.56248
120.56249
120.5634
120.56271
120.56326
120.56331
120.56327
120.5633
120.5634
120.56337
120.56341
120.56337
120.56304
120.56299
120.56296
120.56299
120.56304
120.56308
120.56311
120.56309
120.56318
120.56321
120.56325
120.56322
120.56319
120.56316
120.56312
120.56315
120.56288
120.5629
120.56296
120.56292
120.56287
120.56284
120.56281
120.56283
120.56271
120.56268
120.55954
120.56268
120.56273
120.56276
120.56279
120.56276
100.41289
116.58293
120.54371
119.18985
94.991413
74.971884
82.302416
99.564969
119.51914
98.861256
119.42961
121.1666
121.04614
121.15555
121.16319
121.16516
121.168
121.16231
120.76796
132.423
129.37581
121.16858
131.639
121.17297
131.81003
121.17116
121.16585
131.72582
121.17152
126.45294
129.38355
133.18851
120.73604
131.68255
131.86085
131.69487
132.02893
120.75509
132.24766
121.15908
121.15843
121.20334
121.16954
121.17162
123.32783
118.2178
121.95827
119.71827
118.71642
118.77212
118.41204
111.45055
136.09785
92.368297
98.318893
98.243873
96.633064
97.093148
98.509653
98.533351
119.11257
119.36944
114.79933
119.39924
90.952677
92.993392
93.219872
118.52544
92.996945
136.50078
121.15515
121.15562
121.16972
121.16549
121.16237
120.56273
120.56344
121.18752
121.19415
120.59651
120.58122
120.56247
120.56247
120.56249
120.56249
120.56249
120.56249
120.56248
120.56248
120.56247
120.56249
120.5625
120.56249
120.56247
120.56247
120.56247
120.56247
120.56248
120.56247
120.56249
120.56247
120.56248
120.56248
120.56249
120.56248
120.56248
120.56249
120.56248
120.56248
121.17158
121.17088
120.56247
120.56247
120.56246
120.56248
120.56247
120.56247
120.56247
120.56246
120.56246
120.56246
120.56246
120.56245
120.56246
120.56247
120.56246
120.56246
120.56245
120.56244
120.56245
120.56244
120.56244
120.56245
120.56245
120.56245
120.56245
120.56246
120.56246
120.56246
120.56246
120.56245
120.56245
120.56245
120.56246
120.56246
120.56244
120.56244
120.56249
120.56249
120.56249
120.56249
120.56249
120.56249
120.5625
120.56249
120.56248
120.56248
120.56249
120.56249
120.56249
120.56248
120.56248
120.56248
120.56248
120.56247
120.56248
120.56249
120.56249
120.5625
120.5625
120.56249
120.56248
120.56248
120.56248
120.56249
120.5625
120.56249
120.56249
120.56248
120.56248
120.56248
120.56248
120.56248
120.56248
120.56248
120.56248
120.56248
120.56248
120.56248
120.56247
120.56248
120.56248
120.56248
120.56248
120.56247
120.56247
120.56249
120.56248
120.56248
120.56248
120.56248
120.56249
120.56248
118.5038
119.6566
98.032123
136.82979
93.607617
106.87306
98.98205
97.279945
107.33347
106.67779
102.22171
87.379722
94.920783
96.610816
95.771769
97.628483
97.820268
98.018678
97.831797
98.376842
98.456284
123.07221
118.00536
124.81522
118.87512
119.73245
116.84495
119.44051
117.45244
118.74214
120.56246
120.56248
120.56247
120.56248
120.56248
120.56247
120.56247
120.56248
120.56248
120.56248
120.56326
120.5629
120.56331
120.56331
120.56327
120.56328
120.56335
120.56337
120.56341
120.5634
120.56303
120.56301
120.56298
120.56299
120.56305
120.56306
120.56311
120.5631
120.5632
120.56321
120.56323
120.56323
120.56318
120.56317
120.56313
120.56313
120.5629
120.56291
120.56294
120.56293
120.56285
120.56284
120.56282
120.56282
120.5627
120.56268
120.56223
120.56262
120.56274
120.56274
120.56278
120.56277
113.18768
117.97967
120.46749
120.1665
90.65064
83.473929
89.414787
95.834887
107.48115
99.730281
107.63242
99.461544
107.54378
99.327323
107.38004
107.10414
97.140696
106.63241
107.6103
99.856542
99.93972
107.64013
107.5873
99.688713
107.45414
99.956986
71.591872
94.292344
112.85103
112.83527
71.558715
118.37765
116.66887
119.31998
94.857875
118.252
71.272039
117.18295
112.86722
93.083206
93.083008
92.686328
92.897935
93.083169
93.083169
93.083169
93.083169
93.083155
93.083155
93.083155
93.083155
93.083155
93.083155
93.083155
93.083155
93.083155
93.083155
93.083169
93.083169
121.13831
121.13848
121.14034
121.14054
121.1386
121.1386
121.13857
121.13857
121.14057
121.14055
121.1386
121.13857
121.13857
121.14057
121.13857
121.14057
121.13857
121.13857
113.87526
105.52403
105.52358
113.8757
121.11484
121.13139
121.13302
121.10872
121.1183
121.13367
121.13367
121.1183
113.50741
104.70374
105.14646
113.05987
93.083197
93.083169
93.083169
93.083169
113.8757
105.52405
113.87572
105.52398
121.11831
121.13364
121.13364
121.11831
121.11832
121.13367
121.13365
121.1183
113.87568
105.52398
105.52398
113.87568
121.13857
121.13857
121.14057
121.13857
121.13857
121.13857
121.14057
121.13857
121.13857
121.13857
93.083169
93.083169
93.083169
93.083169
113.87568
105.52398
105.52398
113.87568
121.11831
121.13364
121.13364
121.11831
121.11831
121.13364
121.13364
121.11831
113.87568
105.52398
105.52398
113.87568
113.87568
105.52398
105.52398
113.87568
121.11831
121.13364
121.11831
121.13364
113.87568
105.52398
113.87568
105.52398
121.11831
121.13364
121.13364
121.11831
93.083155
93.083155
93.083155
93.083155
93.083163
93.083155
93.083155
121.13857
121.13857
121.14057
121.13857
121.13857
121.13857
121.13857
121.14057
121.13857
121.13857
113.87568
105.52399
105.52399
113.87568
121.11831
121.13364
121.11831
113.87568
105.52399
105.52399
93.083155
93.083155
93.083155
93.083155
113.87568
105.52399
113.87568
105.52399
121.11831
121.13364
121.13364
121.11831
121.11831
121.13364
121.13364
121.11831
113.87568
105.52399
105.52399
113.87568
113.87568
105.52399
105.52399
113.87568
121.11831
121.13364
121.11831
121.13364
113.87568
105.52398
105.52398
113.87568
121.11831
121.13364
121.13364
121.11831
93.083155
93.083155
93.083155
93.083155
113.87568
105.52399
113.87568
105.52399
121.11831
121.13364
121.13364
121.11831
121.11831
121.13364
121.13364
121.11831
113.87568
105.52399
113.87568
105.52399
93.076613
93.081787
93.059068
93.010165
93.083169
93.083169
93.083169
93.083169
93.083155
93.083155
93.083155
93.083155
93.083155
93.083155
93.083155
93.083155
93.083169
93.083162
93.083169
93.083169
121.13857
121.13855
121.1386
121.14054
121.13859
121.13857
121.13857
121.13856
121.14056
121.13855
121.13857
121.14057
121.13857
121.13857
121.14057
121.13857
118.31472
120.22239
120.22232
118.31494
113.87298
105.51075
105.52109
113.86347
118.31343
120.21933
120.2218
118.30768
121.11734
121.13365
121.13352
121.1181
121.06541
120.77259
120.84434
121.04122
121.07547
120.88813
121.07885
120.87646
121.07993
120.89246
120.89244
121.07994
121.11831
121.13367
121.13368
121.11829
121.07991
120.89152
120.8923
121.07973
113.73467
105.47549
105.37643
113.83029
118.06702
119.9278
120.09784
117.75007
118.22327
120.20958
118.28663
120.17843
93.083158
93.083159
93.083163
93.083169
118.31495
120.22239
118.31497
120.2224
113.87569
105.52398
105.52396
113.87568
118.31495
120.22239
120.2224
118.31496
121.11832
121.13364
121.13364
121.11832
121.07996
120.89246
120.89246
121.07996
121.07996
120.89246
121.07996
120.89246
121.07995
120.89247
121.07994
120.89247
121.11832
121.13364
121.13364
121.11832
121.07996
120.89246
120.89246
121.07996
113.87568
105.52398
105.52398
113.87568
118.31496
120.22239
120.22239
118.31496
118.31496
120.22239
118.31496
120.22239
121.14057
121.13857
121.14057
121.13857
121.14057
121.13857
121.14057
121.13857
121.14057
121.13857
121.14057
121.13857
121.14057
121.13857
121.14057
121.13857
93.083169
93.083169
93.083169
93.083169
118.31496
120.22239
120.22239
118.31496
113.87568
105.52398
105.52398
113.87568
118.31496
120.22239
120.22239
118.31496
121.11831
121.13364
121.13364
121.11831
121.07996
120.89246
120.89246
121.07996
121.07996
120.89246
121.07996
120.89246
121.07996
120.89246
120.89246
121.07996
121.11831
121.13364
121.13364
121.11831
121.07996
120.89246
120.89246
121.07996
113.87568
105.52398
105.52398
113.87568
118.31496
120.22239
120.22239
118.31496
118.31496
120.22239
118.31496
120.22239
113.87568
105.52398
105.52398
113.87568
118.31496
120.22239
118.31496
120.22239
118.31496
120.22239
118.31496
120.22239
121.07996
120.89246
121.07996
120.89246
121.11831
121.13364
121.13364
121.11831
121.07996
120.89246
120.89246
121.07996
113.87568
105.52398
105.52398
113.87568
118.31496
120.22239
118.31496
120.22239
118.31496
120.22239
118.31496
120.22239
121.07996
120.89246
121.07996
120.89246
121.11831
121.13364
121.13364
121.11831
121.07996
120.89246
120.89246
121.07996
93.083155
93.083155
93.083155
93.083155
93.083154
93.083155
93.083155
93.083155
121.14057
121.13857
121.13857
121.13857
121.14057
121.13857
121.14057
121.13857
121.13857
121.13857
121.14057
121.13857
118.31496
120.22239
120.22239
118.31496
113.87568
105.52399
105.52399
113.87568
118.31496
120.22239
120.22239
118.31496
121.07996
120.89246
120.89246
121.07996
121.07996
120.89246
120.89246
113.87568
105.52399
105.52399
113.87568
118.31496
120.22239
118.31496
93.083155
93.083155
93.083155
93.083155
118.31496
120.22239
118.31496
120.22239
113.87568
105.52399
105.52399
113.87568
118.31496
120.22239
120.22239
118.31496
121.11831
121.13364
121.13364
121.11831
121.07996
120.89246
120.89246
121.07996
121.07996
120.89246
121.07996
120.89246
121.07996
120.89246
121.07996
120.89246
121.11831
121.13364
121.13364
121.11831
121.07996
120.89246
120.89246
121.07996
113.87568
105.52399
105.52399
113.87568
118.31496
120.22239
120.22239
118.31496
118.31496
120.22239
118.31496
120.22239
113.87568
105.52398
105.52398
113.87568
118.31496
120.22239
120.22239
118.31496
118.31496
120.22239
118.31496
120.22239
121.07996
120.89246
121.07996
120.89246
121.11831
121.13364
121.13364
121.11831
121.07996
120.89246
120.89246
121.07996
113.87568
105.52398
105.52398
113.87568
118.31496
120.22239
118.31496
120.22239
118.31496
120.22239
118.31496
120.22239
121.07996
120.89246
120.89246
121.07996
121.11831
121.13364
121.13364
121.11831
121.07996
120.89246
120.89246
121.07996
93.083155
93.083155
93.083155
93.083155
118.31496
120.22239
118.31496
120.22239
113.87568
105.52399
105.52399
113.87568
118.31496
120.22239
120.22239
118.31496
121.11831
121.13364
121.13364
121.11831
121.07996
120.89246
121.07996
120.89246
121.07996
120.89246
121.07996
120.89246
121.07996
120.89246
121.07996
120.89246
121.11831
121.13364
121.13364
121.11831
121.07996
120.89246
120.89246
121.07996
113.87568
105.52399
105.52399
113.87568
118.31496
120.22239
118.31496
120.22239
118.31496
120.22239
118.31496
120.22239
121.14049
121.14022
121.12228
121.14057
121.14057
121.14057
121.14057
121.14057
121.14057
121.14057
121.14057
121.14057
121.14057
121.14057
121.14057
121.14057
121.14057
121.14057
121.14057
121.14055
121.14056
121.14057
121.14057
121.14057
121.14057
121.14057
121.14057
121.14057
121.14057
121.14057
121.14057
121.14057
121.14057
121.14057
121.14057
121.14057
121.14057
121.14057
121.14057
121.14057
121.14057
121.14057
121.14057
121.14057
121.14057
121.14057
121.14057
121.14057
121.14057
121.14057
121.14057
121.14057
121.14057
121.14057
121.14057
119.17834
116.19188
118.5161
118.14909
118.75466
119.50539
118.84999
118.7929
146.16972
159.56902
157.39792
160.6752
148.5705
160.6752
160.67519
148.5705
160.6752
160.6752
148.5705
160.6752
148.5705
160.6752
160.6752
160.6752
148.5705
160.6752
160.6752
148.5705
160.6752
160.6752
148.5705
160.6752
148.5705
160.6752
160.6752
160.6752
148.5705
160.6752
160.6752
148.5705
160.6752
160.6752
148.5705
160.6752
148.5705
160.6752
160.6752
160.6752
148.5705
160.6752
160.6752
148.5705
160.6752
160.6752
148.5705
160.6752
148.5705
160.6752
160.6752
160.6752
148.5705
160.6752
160.6752
148.5705
160.6752
160.67519
148.57049
160.67519
148.57048
160.67522
160.67521
160.67521
148.57053
160.67522
160.35344
148.51031
160.59298
160.6752
148.57048
160.67519
160.6752
148.5705
160.6752
121.16372
160.6752
148.5705
160.6752
160.6752
148.5705
160.6752
160.6752
148.5705
160.6752
160.6752
148.5705
160.6752
160.6752
148.5705
160.6752
160.6752
148.5705
160.6752
160.6752
148.5705
160.6752
160.6752
148.5705
160.6752
160.6752
148.5705
160.6752
160.6752
148.5705
160.6752
160.6752
148.5705
160.6752
160.6752
148.5705
160.6752
160.6752
148.5705
160.6752
160.6752
148.5705
160.6752
160.6752
148.5705
160.6752
160.6752
148.5705
160.6752
157.40493
147.75695
159.57125
160.67518
148.57042
160.67468
152.47587
135.99806
143.34576
161.03391
149.44575
149.27263
161.30047
149.94406
149.77361
121.16495
121.16307
121.15836
125.25261
117.04434
121.16242
150.24436
132.71634
121.17091
121.16864
161.04236
142.58217
143.32424
152.46034
148.03729
160.41607
158.07463
148.5705
160.6752
160.6752
148.57049
160.6752
160.67519
131.67011
161.10649
149.4881
161.21403
148.5705
160.6752
160.6752
148.5705
160.6752
160.6752
148.5705
160.6752
160.6752
148.5705
160.6752
160.6752
148.5705
160.6752
160.6752
148.5705
160.6752
160.6752
148.5705
160.6752
160.6752
148.5705
160.6752
160.6752
148.5705
160.6752
160.6752
148.5705
160.6752
160.6752
148.5705
160.6752
160.6752
148.5705
160.6752
160.6752
148.5705
160.6752
160.6752
148.5705
160.6752
160.6752
148.57049
160.67519
160.67519
148.5705
160.67519
160.6752
148.5705
160.6752
160.6752
148.5705
160.67519
160.6752
148.57059
160.67467
160.67517
148.55777
160.67174
160.65747
148.5705
160.67521
160.6752
148.57049
160.67521
160.6752
121.16578
121.17148
161.03112
148.92715
160.74169
148.5705
160.6752
160.6752
148.5705
160.6752
160.6752
148.5705
160.6752
160.6752
148.5705
160.6752
160.6752
148.5705
160.6752
160.6752
148.5705
160.6752
160.6752
148.5705
160.6752
160.6752
148.5705
160.6752
160.6752
148.5705
160.6752
160.6752
148.5705
160.6752
160.6752
148.5705
160.6752
160.6752
148.5705
160.6752
160.6752
148.5705
160.6752
160.6752
148.5705
160.6752
160.6752
148.5705
160.6752
160.6752
148.5705
160.6752
160.6752
148.33347
160.59311
160.35394
148.56857
160.65742
160.67179
158.13216
150.34393
148.11825
115.81488
119.55362
115.9895
119.49777
131.87437
131.68499
120.73306
121.16694
121.15842
121.15887
121.21987
121.19759
121.19766
121.21988
121.20325
121.20336
121.16349
121.1716
121.16963
101.31293
102.12681
106.07327
108.16616
106.54092
106.58224
105.9547
105.71348
106.68708
106.67587
106.19835
102.81819
121.15561
121.15515
121.15561
121.14778
121.14739
121.1516
121.14685
121.16307
121.16481
121.16549
121.16996
121.16232
121.16813
121.16673
121.17108
121.17327
121.16342
121.16409
121.16417
121.15843
121.16584
121.17132
121.17087
121.17166
106.82556
99.389328
100.11824
107.70877
99.20273
107.51096
99.868597
107.67393
100.05666
106.70029
107.47566
99.304744
98.762263
106.82427
105.26212
105.70527
106.32761
106.22957
106.3359
106.42654
106.64915
106.61118
116.03192
119.57481
119.5365
116.11283
115.89605
119.4729
103.19197
101.97646
107.65334
99.272334
99.220925
99.589003
107.60585
98.144638
99.435253
107.70356
100.11659
107.58016
99.948094
119.52514
116.02567
119.46043
115.99605
119.55633
116.08494
115.79031
115.57351
118.85597
114.53757
113.20776
116.95438
117.65127
114.874
115.58754
118.01743
117.35754
115.01057
93.083171
93.083171
93.083181
93.083175
93.083277
93.083277
93.083284
93.083284
93.083249
93.083255
93.083275
93.083275
93.083922
93.083922
93.083174
93.083175
93.083276
93.083263
93.083151
93.083156
93.083182
93.083178
93.083922
93.083922
93.083922
93.083922
93.083258
93.083257
93.083268
93.083257
93.083168
93.08327
93.083263
93.083255
93.083255
93.083249
93.083249
93.083255
93.083255
93.083175
93.083179
93.083156
93.083156
93.083147
93.083159
93.083156
93.083156
93.083922
93.083922
93.083965
93.083975
93.083278
93.0833
93.083935
93.083925
93.083166
93.083167
93.083164
93.083166
93.08328
93.083279