/*--------------------------------*- C++ -*----------------------------------*\
| =========                 |                                                 |
| \\      /  F ield         | OpenFOAM: The Open Source CFD Toolbox           |
|  \\    /   O peration     | Version:  2306                                  |
|   \\  /    A nd           | Website:  www.openfoam.com                      |
|    \\/     M anipulation  |                                                 |
\*---------------------------------------------------------------------------*/
FoamFile
{
    version     2.0;
    format      ascii;
    arch        "LSB;label=32;scalar=64";
    class       volVectorField;
    location    "1.65";
    object      Force;
}
// * * * * * * * * * * * * * * * * * * * * * * * * * * * * * * * * * * * * * //

dimensions      [1 1 -2 0 0 0 0];

internalField   uniform (0 0 0);

boundaryField
{
    walls
    {
        type            calculated;
        value           uniform (0 0 0);
    }
    inlet
    {
        type            calculated;
        value           uniform (0 0 0);
    }
    outlet
    {
        type            calculated;
        value           uniform (0 0 0);
    }
    NASA
    {
        type            calculated;
        value           nonuniform List<vector> 
14179
(
(-0.0144387 -0.132786 1.13775e-05)
(-0.0128954 -0.106604 8.32416e-06)
(-0.0667304 -0.539539 0.00112998)
(-0.101905 -0.819674 0.00434698)
(-0.0655351 -0.530437 0.000577468)
(-0.110432 -0.88821 0.00477059)
(0.21521 0.934451 -0.000445815)
(0.0965202 0.484559 -7.71276e-05)
(0.688212 3.37489 0.00339737)
(0.100612 0.505127 -8.10418e-05)
(-4.44671e-05 -0.00471988 2.42537e-06)
(-0.0179325 -0.146841 0.000760112)
(0.129883 0.648792 -0.00317159)
(-0.035736 -0.324976 0.00180145)
(0.0615882 0.307266 -0.00146758)
(1.37499 0.927537 0.00283423)
(1.39174 0.922496 -0.00050295)
(0.0227381 0.127609 -7.433e-05)
(0.159077 0.944046 -0.000142283)
(1.272 0.843159 -0.00478425)
(-0.0169907 -0.237742 3.20366e-07)
(-0.0211581 -0.196734 -0.000101149)
(-0.0194363 -0.269841 -0.000207138)
(-0.00857926 -0.0624964 4.96823e-06)
(-0.0130715 -0.108112 3.08056e-05)
(-0.00927458 -0.0675663 2.45801e-05)
(-0.012945 -0.106632 0.000540455)
(-0.0151744 -0.108743 0.000569695)
(-0.0133186 -0.121664 0.000615193)
(-0.0156123 -0.214324 0.00415721)
(0.0469651 0.205111 -4.0765e-06)
(0.0528546 0.249242 -8.45799e-06)
(0.0568519 0.268081 -0.000111523)
(0.0463286 0.201797 -2.59957e-05)
(0.0608854 0.22336 -2.7098e-06)
(0.0659415 0.241766 -1.59858e-06)
(0.0310568 0.11269 -1.18037e-06)
(0.0347994 0.126193 2.18071e-06)
(-0.00205532 -0.00983204 0.000166244)
(-0.0129482 -0.0630193 0.000796007)
(0.168096 0.613911 -0.00247721)
(0.0981224 0.353797 -0.00102059)
(0.100706 0.505264 -0.000126524)
(-0.00590524 -0.0415312 4.68734e-06)
(-0.00537351 -0.0377855 2.76355e-06)
(0.158651 0.79649 -0.000193071)
(-0.00985022 -0.0681962 0.000390409)
(0.0964239 0.481455 -0.00159923)
(0.0895852 0.447745 -0.00162129)
(0.107876 0.440777 -0.000400734)
(0.0845272 0.314232 -2.68305e-05)
(0.0841897 0.312989 -7.45795e-05)
(-0.0576307 1.40561 -0.000186211)
(1.38554 0.921261 -0.000772255)
(-0.0448678 1.10009 7.04575e-05)
(-0.0025479 1.22248 -0.00015494)
(0.0703089 1.06433 1.13723e-05)
(0.0736972 1.11372 -0.000313523)
(-0.00227569 1.00783 -1.53233e-05)
(0.0891334 0.350356 -2.84386e-05)
(0.164606 0.975706 -0.000263566)
(0.00758016 0.027573 -2.07157e-05)
(-0.0228969 0.56854 -0.00193823)
(0.919438 0.627592 0.0749652)
(-0.000752526 0.533585 -0.00211239)
(0.0269446 0.408813 -0.00150162)
(0.126779 0.74211 0.00524418)
(-0.0145652 -0.145736 1.48062e-05)
(-0.0143816 -0.132347 2.23037e-05)
(-0.100291 -0.806806 0.00427278)
(-0.0113645 -0.0901339 7.78623e-06)
(-0.0128738 -0.106434 1.76078e-05)
(1.31816 0.872739 -0.0055981)
(1.27081 0.841651 -0.00518614)
(0.34465 2.04394 -0.0117505)
(0.259492 1.53331 -0.00815748)
(-0.111798 -0.900443 0.00335793)
(-0.05674 -0.353177 0.00193707)
(-0.0557567 -0.349503 0.00197159)
(-0.0427666 -0.25092 0.00139996)
(0.155888 0.672328 -0.0037543)
(0.174793 0.755797 -0.00413571)
(0.761103 1.30678 -4.85592e-05)
(0.761704 1.30587 -0.000314693)
(0.0970248 0.486897 -0.000100368)
(0.0898438 0.431683 -5.68942e-05)
(-0.000205009 -0.00275064 -6.85908e-07)
(0.00153078 0.00781161 -4.45492e-07)
(0.00156736 0.00802102 -2.76131e-06)
(-0.00019807 -0.00270012 3.45172e-07)
(0.101384 0.508907 -8.98558e-05)
(0.094131 0.485498 -6.52955e-05)
(-0.0201302 -0.164565 0.000915957)
(-0.0135562 -0.0972135 0.00056339)
(-0.0203832 -0.145577 0.00080831)
(-0.0123807 -0.0854293 0.000526225)
(-0.0181437 -0.124485 0.000647742)
(0.0849088 0.423706 -0.00234168)
(-0.0201218 -0.183114 0.00100177)
(-0.0248416 -0.341165 0.00198135)
(-0.0209368 -0.294089 0.00100431)
(0.0796292 0.397737 -0.00217018)
(1.37226 0.921633 -0.00265221)
(0.0954269 0.562536 -0.00010051)
(0.103763 0.580332 -4.67846e-05)
(0.10408 0.5818 -9.84509e-05)
(0.188231 1.3105 -0.000235845)
(0.107014 0.63475 -0.000108805)
(0.159039 0.94346 -0.0001612)
(0.0203985 0.0192688 1.94222e-05)
(0.359419 -0.132454 0.00360153)
(0.372087 -0.147526 0.00174704)
(0.0158771 0.0152673 -4.29059e-05)
(-0.00659822 -0.0283259 0.000228463)
(0.0217563 0.0802131 -0.000384787)
(0.00239304 0.00821564 2.60953e-05)
(0.0218496 0.0879723 -0.00031645)
(-0.00944017 -0.0421457 0.000249946)
(-0.00174518 -0.00992799 0.000134808)
(0.00434777 0.0181562 -4.33751e-05)
(-0.0180391 -0.0872492 0.000480612)
(-0.00109145 0.730951 -0.00371868)
(0.0405797 0.606396 -0.00318255)
(-0.00159071 0.979774 -0.00505778)
(0.031675 0.479623 -0.0028271)
(-0.0347321 0.867674 -0.00460226)
(1.09968 0.739767 -0.00447004)
(-0.0470713 1.16335 -0.00595675)
(0.10888 0.644464 -0.00442052)
(0.154895 0.606631 -0.00352546)
(0.116571 0.455915 -0.00242175)
(0.107327 0.391652 -0.00206197)
(0.151556 0.55376 -0.00291432)
(0.0624665 0.225398 -0.00118479)
(0.0850536 0.307431 -0.00168978)
(-0.0131327 -0.14797 6.65888e-06)
(-0.0168753 -0.235802 3.30218e-05)
(-0.0104143 -0.0802276 7.24831e-06)
(-0.00842961 -0.0614123 9.184e-06)
(0.000669076 0.00207383 0.535533)
(-0.0129796 -0.102138 0.000525091)
(0.000638626 0.00198109 0.509345)
(-0.0144385 -0.110022 0.000576745)
(0.00096288 0.00239236 0.579069)
(-0.0130457 -0.130262 0.000723658)
(0.00121968 0.0028378 0.580021)
(-0.0121525 -0.140018 0.00156852)
(0.0526538 0.248279 -5.22095e-05)
(0.0392506 0.178519 -1.64735e-05)
(0.0395707 0.179998 -3.87368e-05)
(0.0465508 0.202739 -3.24208e-05)
(0.0458182 0.201804 -1.85676e-05)
(0.0460577 0.202882 -4.00721e-05)
(0.0610743 0.223904 2.27105e-06)
(0.0241287 0.12001 -2.38952e-05)
(0.0215784 0.109483 -2.20221e-05)
(0.0316507 0.114778 5.00762e-06)
(0.0272312 0.0958171 -1.63747e-06)
(-0.00645754 -0.0295553 0.000302737)
(-0.00545512 -0.0259894 0.000320534)
(0.000490491 0.0016061 0.319559)
(0.000487465 0.00155093 0.312503)
(0.000476148 0.00152196 0.308864)
(0.00033824 0.00151642 0.354133)
(0.092284 0.31448 -0.000656703)
(0.157957 0.552341 0.00201684)
(3.67761e-06 0.00152911 0.332683)
(0.000397766 0.000863105 0.30123)
(0.000122797 0.000529851 0.106336)
(0.0808069 0.28366 -0.000794644)
(0.284388 0.660696 -1.17863e-05)
(0.167709 0.591276 4.43407e-05)
(0.166034 0.585419 -6.43066e-05)
(0.0844273 0.394362 -4.3542e-05)
(0.0838494 0.391552 -7.18667e-05)
(0.141728 0.6771 -8.09831e-05)
(0.078976 0.351597 -5.68725e-05)
(0.0859018 0.389941 -3.68063e-05)
(0.0850893 0.386056 -6.75043e-05)
(0.0802317 0.357421 -2.56805e-05)
(-0.00464264 -0.0327294 3.9937e-06)
(-0.00583119 -0.0410154 4.99269e-06)
(0.147552 0.781602 -8.06546e-05)
(0.266932 0.460443 0.00968438)
(0.00126098 0.00509982 0.865422)
(0.000351773 0.00271345 0.413074)
(0.0487104 0.141705 -0.000349678)
(-0.0118187 -0.0737315 0.00046651)
(-0.0118513 -0.0748287 0.000614552)
(0.00111481 0.00320135 0.680825)
(0.000399929 0.000935608 0.309915)
(0.0955992 0.490727 -0.000654023)
(0.000613904 0.0010221 0.373829)
(0.139131 0.731355 0.00279278)
(0.000632617 0.0018565 0.347102)
(0.000481176 0.00161984 0.329031)
(-0.000241091 0.00138012 0.352363)
(7.10255e-05 0.000669381 0.111891)
(0.0798931 0.381633 -0.00141511)
(0.102429 0.475908 -0.000708289)
(0.000507008 0.000646135 0.205084)
(9.88221e-05 0.000752019 0.107121)
(0.168323 0.707458 -0.000606037)
(0.0845546 0.314335 -4.25863e-05)
(0.0805402 0.308317 -3.27864e-05)
(0.0960756 0.391677 -6.36394e-05)
(0.0674194 0.271554 -1.87398e-05)
(-0.802033 2.56399 -0.0196572)
(-0.0473208 1.1584 -4.1363e-05)
(-0.157964 1.47633 0.000649452)
(0.070936 1.07163 -0.000152804)
(0.0529191 1.13292 -7.43621e-05)
(-0.00229386 1.02329 -5.61944e-05)
(0.0296665 1.12221 -4.9466e-05)
(0.106456 1.16914 -0.00014269)
(0.139833 1.80666 -0.000127507)
(0.140437 1.81377 -0.000214679)
(0.105244 1.15625 -0.000103441)
(0.117306 1.19889 -0.000174635)
(0.119379 1.11118 -4.56462e-05)
(0.122683 1.14212 -0.000205119)
(0.114103 1.16584 -4.74868e-05)
(0.0619693 0.256709 -2.25806e-05)
(0.0565721 0.224424 -1.79887e-05)
(0.0889439 0.349398 -1.71284e-05)
(0.119359 0.808602 -0.00017107)
(0.118281 0.744933 -0.000127123)
(-0.000210062 0.0019558 0.569287)
(0.00111325 0.00454367 0.896778)
(0.00112346 0.00358735 0.000125118)
(0.000571716 0.00456792 0.74175)
(0.00215355 0.00736804 0.000108775)
(0.00062263 0.0109091 0.274918)
(-0.0607006 0.58203 -0.00254108)
(0.00765591 0.00100054 1.74763)
(0.00044531 0.00124607 0.303528)
(0.0141079 0.516308 -0.0021093)
(0.000827884 0.000665413 0.244685)
(0.0231303 0.484672 -0.00186451)
(0.0610304 0.525269 -0.00210905)
(0.0607545 0.515412 -0.00205517)
(0.00042989 0.00100532 0.243871)
(0.000461984 0.00110154 0.268357)
(0.0572318 0.528214 -0.00200722)
(0.0520324 0.525119 -0.00170123)
(0.0471128 0.515758 -0.000363399)
(2.45628e-05 8.24174e-05 0.224949)
(-0.0191795 -0.105299 0.00145805)
(0.000322694 0.00195156 0.505381)
(0.0910351 0.506352 -0.00163826)
(0.000481052 0.00157094 0.319471)
(0.000483338 0.00157738 0.320662)
(0.484514 -0.193015 -0.00365273)
(0.223056 0.210905 0.00160118)
(0.000192504 0.000284867 0.0773774)
(-0.0533371 -0.524353 0.00190002)
(-0.0702723 -0.56754 0.00206659)
(-0.0567636 -0.557545 0.00255128)
(-0.0706626 -0.570646 0.00212127)
(-0.0770949 -0.62185 0.00285963)
(-0.0601175 -0.590093 0.00299038)
(-0.0848588 -0.683714 0.0034822)
(0.177357 0.76768 -0.00420152)
(0.444329 2.17592 -0.0116701)
(0.180873 0.783286 -0.00427319)
(0.424053 2.0761 -0.0111692)
(-0.0656809 -0.531473 0.000649879)
(-0.0427681 -0.266743 0.00143953)
(-0.106053 -0.852765 0.00453924)
(-0.0483963 -0.301413 0.00163226)
(1.39418 0.924237 -0.00124076)
(1.39374 0.923827 -0.000566311)
(0.237989 1.03312 -0.000652229)
(0.682536 3.34887 -0.0037118)
(0.629013 3.08586 -0.00207067)
(0.253782 1.10152 -0.00117499)
(0.45355 2.68921 -0.00184138)
(0.44931 2.66416 -0.00302163)
(-0.000596039 -0.00700597 8.97335e-06)
(-8.80448e-05 -0.00448484 3.23553e-06)
(0.0226154 0.128002 -0.000143915)
(0.0231072 0.130283 -9.36802e-05)
(0.0496321 0.215424 -0.00104197)
(0.0363717 0.165225 -0.000796001)
(0.0597615 0.260177 -0.00129913)
(0.028111 0.126803 -0.000580222)
(-0.109531 -0.881575 0.00472619)
(-0.0696552 -0.506278 0.0027272)
(0.017239 0.0808968 -0.000310256)
(-0.0110506 -0.06128 0.000390489)
(0.0630417 0.2299 -0.00127826)
(0.0709252 0.258617 -0.0014147)
(0.0342289 0.123397 -0.000688211)
(0.0396004 0.142755 -0.000781647)
(0.282675 1.27897 -0.000648974)
(0.169777 0.736547 -0.000160625)
(0.325742 1.54028 -0.000833763)
(0.145787 0.731508 -0.00025755)
(-0.0187163 -0.157551 0.000206531)
(-0.0425549 -0.315523 0.000415982)
(-0.00692821 -0.0506441 -2.51784e-06)
(0.000816264 -0.000101617 -7.27938e-07)
(-0.0181145 -0.12428 6.83077e-05)
(-0.0240391 -0.168322 0.000124679)
(0.0969152 0.396303 6.71748e-05)
(0.0839314 0.312085 -0.000171488)
(0.0840847 0.312612 -0.000102727)
(0.108376 0.444702 -0.000836118)
(0.165404 0.726634 -0.000362265)
(0.14189 0.653979 -0.000229655)
(0.172609 0.758928 -0.000415905)
(0.181747 0.847647 -0.00025977)
(-0.00285037 1.34789 -0.000218522)
(0.0711059 1.07219 -0.000563085)
(-0.00332843 1.51782 -0.00069311)
(0.0753 1.13762 -0.000387891)
(-0.0628103 1.53251 -0.000259649)
(1.3894 0.922167 -0.000481343)
(-0.0705686 1.7207 -0.000766376)
(0.447164 3.83418 -0.00264247)
(0.0933417 0.366761 -6.97887e-05)
(0.0825722 0.324479 -0.000151014)
(0.0749069 0.27465 -8.58825e-05)
(0.068472 0.251059 -1.71664e-05)
(0.0569889 0.298785 -0.00021034)
(0.184261 0.909535 -0.00139157)
(0.0219721 0.122454 -9.90307e-05)
(0.0474574 0.254677 -0.000147012)
(0.800075 5.00571 0.000867529)
(0.374883 2.50376 -0.000197052)
(0.040247 0.145944 -4.27844e-05)
(0.0364088 0.13204 -3.12099e-06)
(1.25366 0.832927 -0.00368417)
(0.0896151 0.620615 -0.00334253)
(0.24495 0.229767 -0.00125712)
(0.495429 -0.20541 0.000517383)
(0.23191 0.218212 -0.00127266)
(0.515523 -0.214108 0.000274756)
(0.063526 0.232909 2.99396e-06)
(0.0305762 0.107509 4.96641e-06)
(0.0332928 0.120739 7.56717e-06)
(0.284502 0.660994 -3.6589e-05)
(0.27502 0.807387 -0.000147361)
(0.00103457 0.00354017 0.732805)
(0.000426248 0.00194622 0.362605)
(0.000611274 0.00105393 0.382805)
(-0.185105 1.715 -0.000255169)
(-0.0516877 1.26255 -6.89552e-05)
(1.3813 0.921774 -0.00142695)
(0.0263483 0.0248983 2.58514e-05)
(0.36525 -0.150127 0.000139643)
(0.371261 -0.150948 0.000596332)
(0.0276337 0.0260778 1.90153e-05)
(0.000638667 0.00238613 0.547306)
(0.00048606 0.00122586 0.380185)
(0.000441694 0.00129565 0.341388)
(0.000659356 0.00191718 0.364093)
(-0.0916043 -0.737512 0.00385852)
(1.35434 0.896783 -0.00575586)
(1.34034 0.887479 -0.00569754)
(1.31434 0.870226 -0.00558275)
(1.33918 0.886707 -0.00569387)
(0.395337 1.93448 -0.010432)
(0.174283 0.753785 -0.00413111)
(0.176108 0.762151 -0.00417347)
(0.416595 2.03942 -0.0109834)
(0.268529 1.58695 -0.00848692)
(0.287027 1.69657 -0.00903257)
(-0.0247885 -0.146492 0.00080623)
(-0.0314457 -0.185015 0.00101879)
(-0.0556616 -0.346311 0.00188989)
(-0.0503898 -0.313694 0.00170222)
(-0.0409369 -0.240096 0.00133159)
(-0.0339424 -0.199463 0.00110009)
(0.252447 2.14829 -0.0113248)
(0.239522 2.0374 -0.0108191)
(0.0249934 0.0922573 -0.000453684)
(0.0233661 0.0944195 -0.000503906)
(0.035004 0.142311 -0.000506431)
(0.0330675 0.122299 -0.000627258)
(0.00170966 0.00646918 3.73115e-05)
(0.0267275 0.114282 -0.00046642)
(0.0359153 0.155101 -0.000716291)
(0.0213419 0.0948337 -0.000367909)
(0.0410283 0.151924 -0.000795231)
(0.0450288 0.183609 -0.000703259)
(0.0353434 0.130769 -0.000675631)
(0.0424451 0.634007 -0.00331451)
(-0.001677 1.02322 -0.00528184)
(-0.00187305 1.12799 -0.00582012)
(0.0467516 0.698609 -0.00365708)
(-0.0544876 1.34543 -0.0068942)
(1.30528 0.864187 -0.00553519)
(-0.0569727 1.40641 -0.00720933)
(-0.0489194 1.20872 -0.00619251)
(-0.0532807 1.31582 -0.00674346)
(1.30204 0.862032 -0.00552105)
(-0.00192842 1.15642 -0.00596541)
(0.0510691 0.764246 -0.00399227)
(-0.00203752 1.21243 -0.0062559)
(0.0480673 0.718753 -0.00373357)
(0.225383 1.33297 -0.00685526)
(0.409944 2.54911 -0.0157224)
(0.236196 1.57385 -0.00839784)
(0.246188 1.45373 -0.0078526)
(0.402985 2.51369 -0.0133238)
(0.375668 2.34248 -0.012684)
(0.194911 1.29575 -0.00827612)
(-0.0815327 -0.598895 0.00276449)
(-0.102578 -0.825458 0.00454126)
(-0.0668639 -0.44398 0.00241034)
(-0.0568262 -0.354203 0.00196263)
(-0.080048 -0.53677 0.00282103)
(-0.0530314 -0.331307 0.00187293)
(-0.024119 -0.134261 0.000781743)
(-0.0445357 -0.261729 0.0014839)
(0.00388665 0.012813 0.000167396)
(-0.0470348 -0.277623 0.0016112)
(0.229902 1.03314 -0.00591836)
(0.178313 0.770608 -0.00419486)
(0.236567 1.11495 -0.00603823)
(0.176299 0.762125 -0.00415713)
(0.223817 1.00922 -0.00549067)
(0.239966 1.1304 -0.00654909)
(0.366049 1.78943 -0.00986147)
(0.104645 0.409189 -0.00218682)
(0.0886529 0.346573 -0.00188405)
(0.094427 0.344477 -0.0018319)
(0.0746003 0.272025 -0.00147852)
(0.0860965 0.33661 -0.00184344)
(0.0801971 0.313611 -0.00173313)
(0.0548321 0.197788 -0.00104921)
(0.0421144 0.151822 -0.000825335)
(0.122998 0.285124 -0.00150597)
(0.104334 0.241749 -0.00123639)
(-0.0207358 -0.157197 0.000881569)
(-0.0182306 -0.130423 0.000734906)
(0.0805598 0.411841 -0.00250517)
(0.0851532 0.425109 -0.00225786)
(0.123094 0.649997 -0.00409783)
(-0.0193018 -0.190824 0.000974579)
(-0.0199426 -0.181888 0.000998138)
(-0.0172145 -0.189518 0.000718414)
(-0.0212847 -0.295246 0.00153272)
(0.0764883 0.366122 -0.00210867)
(0.0810547 0.404712 -0.00214009)
(-0.00425211 -0.0179461 0.000149058)
(0.00584838 0.0225159 -7.39888e-06)
(-0.000842538 -0.00401624 9.05757e-05)
(0.0126667 0.0463982 -0.000176464)
(0.0175626 0.645448 -0.00331745)
(-0.00131218 0.844859 -0.00435316)
(0.026746 0.564642 -0.00298574)
(0.0359255 0.53792 -0.00288473)
(-0.105036 0.998217 -0.00646872)
(-0.0410618 1.01767 -0.00525059)
(1.21799 0.813463 -0.00206077)
(-0.456134 1.4844 -0.00705876)
(-0.0449332 1.11145 -0.00570581)
(-0.140322 1.30568 -0.00658446)
(-0.0118946 -0.0621712 0.000394571)
(-0.00872662 -0.0449175 0.000296878)
(-0.0105233 -0.0539146 0.00035006)
(-0.010079 -0.0528849 0.000341317)
(-0.0248578 -0.136463 0.000663435)
(0.000924899 0.00227775 0.388097)
(0.0581271 0.391178 -0.00209759)
(0.0915169 0.633953 -0.00349866)
(0.060095 0.404122 -0.00222341)
(0.125023 0.456382 -0.00238323)
(0.151943 0.55494 -0.00289656)
(0.0720724 0.260144 -0.00135535)
(0.0611354 0.213903 -0.00112403)
(0.0801597 0.280965 -0.00164958)
(0.088073 0.318095 -0.00167241)
(0.449693 -0.187916 -0.00230876)
(0.208878 0.191831 -0.000216551)
(0.255729 0.237872 -0.00110448)
(0.521727 -0.217648 -0.000545745)
(0.219872 0.953323 -0.0050552)
(0.562668 2.75783 -0.014327)
(0.226534 0.982207 -0.005142)
(0.545477 2.67348 -0.0140241)
(-0.0662687 -0.535957 0.000930347)
(-0.0015546 -0.0128651 2.92528e-05)
(-0.00116732 -0.0104753 2.00223e-05)
(0.20188 0.875858 -0.00152721)
(0.704072 3.45333 -0.00719419)
(0.221795 0.962031 -0.0019932)
(-0.0618986 -0.450076 0.00239544)
(0.177863 0.782448 -0.000771539)
(0.1446 0.66759 -0.000758572)
(0.178027 0.783233 -0.000890029)
(0.144523 0.66716 -0.000663775)
(0.0692273 0.253707 -0.000274811)
(0.0737856 0.270321 -0.000200648)
(-0.0330662 -0.24263 0.000268147)
(0.163662 0.810286 -0.000919486)
(0.0643281 0.338412 -0.000383637)
(0.0398512 0.144454 -0.000153718)
(0.0387386 0.140341 -0.000100311)
(1.3917 0.922552 -0.000447068)
(0.03007 0.0282697 3.26895e-06)
(0.342517 -0.142166 1.37062e-05)
(0.0298094 0.0280171 -3.45822e-06)
(0.346312 -0.143676 6.86988e-06)
(-0.0222222 -0.140189 0.000730646)
(-0.0246105 -0.154901 0.000815244)
(-0.0407483 -0.254302 0.00137072)
(-0.0963232 -0.775158 0.00408639)
(-0.0358503 -0.224135 0.00120286)
(0.182616 0.790977 -0.00431091)
(0.194275 0.842236 -0.00457546)
(0.10247 0.448586 -0.00234973)
(0.0767468 0.352373 -0.00183967)
(0.105994 0.46413 -0.00243397)
(0.0734105 0.336919 -0.00175506)
(0.0433597 0.197717 -0.000984196)
(0.0683361 0.298035 -0.00151244)
(0.0752358 0.328479 -0.00168433)
(0.0492188 0.224901 -0.00113874)
(0.0574407 0.210139 -0.00119554)
(0.0558731 0.20427 -0.00116244)
(0.061285 0.22352 -0.00124838)
(0.0575109 0.20985 -0.00118306)
(0.0136476 0.0697134 -0.000340964)
(0.0676348 0.331869 -0.00171122)
(-0.0691596 -0.502542 0.00270242)
(0.0247613 0.118559 -0.000531283)
(-0.00729991 -0.0412479 0.000273468)
(0.0318481 0.153921 -0.000733032)
(0.0311696 0.112776 -0.000647621)
(0.029824 0.107825 -0.000619442)
(0.0330319 0.119094 -0.000667783)
(0.0305012 0.110021 -0.000624267)
(1.31721 0.872098 -0.00559141)
(1.28464 0.850541 -0.00537499)
(0.12614 0.118822 -0.00072777)
(0.36139 -0.150041 0.000482847)
(0.370968 -0.154016 0.000497455)
(0.114394 0.107746 -0.00066373)
(0.473675 -0.196416 0.000582541)
(0.215679 0.203137 -0.00120962)
(0.201676 0.190013 -0.00113825)
(0.453933 -0.188335 0.000573708)
(7.2257e-05 -0.0133559 2.91016e-05)
(6.42811e-06 -0.0180914 5.3471e-05)
(-0.0525289 -0.516566 0.00156331)
(-0.000123979 -0.0276302 0.00010136)
(-0.000125714 -0.027735 8.28925e-05)
(-0.0686 -0.554281 0.00168677)
(-0.0549668 -0.540113 0.00228019)
(-0.000291909 -0.0399631 0.000184829)
(-9.74465e-05 -0.0257116 0.000110268)
(-0.0730623 -0.589736 0.00246923)
(-0.0735778 -0.593842 0.00251954)
(-0.000117284 -0.0271483 0.000141044)
(-0.0590551 -0.579783 0.00284075)
(-0.000328878 -0.042662 0.0002111)
(-0.0819023 -0.660151 0.00325055)
(1.3735 0.909623 -0.00569539)
(1.37107 0.907982 -0.00573855)
(1.36799 0.905901 -0.00577115)
(1.37285 0.909157 -0.00575183)
(0.192322 0.834158 -0.0044385)
(0.519772 2.54757 -0.0135022)
(0.536008 2.6272 -0.0138096)
(0.189311 0.820964 -0.00440829)
(0.178164 0.771295 -0.00421668)
(0.234741 1.0594 -0.00575389)
(0.265272 1.25152 -0.00673929)
(0.437851 2.14404 -0.0115111)
(0.179641 0.777816 -0.00424761)
(0.242024 1.09265 -0.00591556)
(0.254781 1.20169 -0.00649137)
(0.430451 2.10761 -0.011334)
(1.39141 0.922362 -0.00249033)
(1.38929 0.920985 -0.00197318)
(1.39291 0.923386 -0.00134111)
(1.39063 0.921883 -0.00189586)
(0.462763 2.74375 -0.00351882)
(0.481591 2.85447 -0.00467293)
(-0.000723963 -0.00776139 1.08584e-05)
(-0.0660824 -0.534517 0.000858861)
(-0.000998847 -0.00943876 1.69232e-05)
(0.0216472 0.122411 -0.000259175)
(0.0220606 0.124818 -0.000220053)
(0.0224888 0.127298 -0.000159633)
(0.0222441 0.125884 -0.000206174)
(0.251704 1.09224 -0.00133421)
(0.212463 0.921759 -0.00149947)
(0.628899 3.08443 -0.00504463)
(-0.0560584 -0.372519 0.00199412)
(-0.0445451 -0.27769 0.00150014)
(-0.0653725 -0.475124 0.00253835)
(-0.0465419 -0.289989 0.00156855)
(-0.06067 -0.40287 0.00216509)
(0.403571 3.45242 -0.00335833)
(0.405674 3.47274 -0.00288512)
(0.0839134 0.312026 -0.000196213)
(0.108479 0.445161 0.000280391)
(0.108588 0.445643 -0.000966903)
(0.083827 0.311738 -0.000266463)
(0.141077 0.65053 -0.000502959)
(0.176455 0.776046 -0.000540688)
(0.177405 0.780361 -0.000657664)
(0.143983 0.664484 -0.000567259)
(0.108572 0.44558 0.000147757)
(0.0836867 0.311254 -0.000360884)
(0.108486 0.44525 -0.00109741)
(0.0837912 0.311617 -0.000292937)
(0.0699907 1.05634 -0.000607736)
(-0.0033961 1.53989 -0.000821683)
(-0.00350304 1.56155 -0.00122631)
(0.068548 1.03521 -0.000845029)
(-0.0728969 1.77446 -0.00150247)
(1.39417 0.924196 -0.000969119)
(-0.07181 1.74788 -0.00188177)
(-0.0716571 1.74663 -0.00091712)
(-0.0728948 1.77487 -0.00135962)
(1.39398 0.924045 -0.000852778)
(-0.00351456 1.55984 -0.00133485)
(0.0685673 1.03579 -0.00117256)
(-0.00347364 1.53409 -0.00167694)
(0.0684464 1.03387 -0.000915848)
(0.315095 1.42571 -0.000883102)
(0.247852 1.07571 -0.000827868)
(0.680867 3.34065 -0.00308953)
(0.401396 1.89785 -0.00207084)
(0.34699 1.64084 -0.00101407)
(0.662178 3.2488 -0.00261281)
(0.252076 1.09407 -0.00101046)
(0.359664 1.62715 -0.00174899)
(0.0798167 0.313587 -0.000174335)
(0.0728626 0.286063 -0.000223632)
(0.0740345 0.271428 -0.000119349)
(0.0737374 0.270139 -0.000178912)
(0.0709803 0.27867 -0.000238667)
(0.709368 4.43803 -0.00342294)
(0.47019 2.78771 -0.00231577)
(0.706784 4.42358 -0.00369144)
(0.383997 2.56871 -0.00254797)
(0.409806 2.74074 -0.00228198)
(0.460097 2.72814 -0.00261402)
(-0.0311283 -0.229128 0.000168154)
(-0.0195374 -0.132398 0.00014851)
(-0.000465534 -0.00628374 6.96585e-06)
(-0.0187051 -0.12754 9.35646e-05)
(-0.000404692 -0.00609113 6.01206e-06)
(0.0636448 0.334262 -0.000238114)
(0.161372 0.798044 -0.000568494)
(0.163671 0.809978 -0.000690534)
(0.0486215 0.262053 -0.000296659)
(0.0227145 0.128503 -0.000127335)
(0.0486828 0.261854 -0.000189164)
(0.0227648 0.128626 -0.000109387)
(0.0402635 0.145998 -6.03574e-05)
(0.0385459 0.139642 -9.12222e-05)
(0.0652114 0.237796 -0.00131641)
(0.0676508 0.246675 -0.00135831)
(0.0316158 0.110504 -0.000617822)
(0.0357062 0.128716 -0.000714071)
(0.0374666 0.130958 -0.000716895)
(0.0373818 0.134751 -0.000742915)
(0.275414 0.80874 -0.000409306)
(0.275183 0.807911 -0.000239865)
(0.286057 0.664793 -0.000264643)
(0.285707 0.663944 -0.000214946)
(-0.194503 1.80161 -0.000352422)
(-0.0664654 1.62244 -0.000470858)
(1.39038 0.922031 -0.000430214)
(-0.888585 2.88901 -0.00109925)
(-0.0689424 1.682 -0.000623472)
(-0.210833 1.95088 -0.000830708)
(0.0736327 0.269985 -5.28885e-05)
(0.0708354 0.259726 -3.07985e-05)
(0.0391751 0.142058 -2.43494e-05)
(0.0347587 0.122206 -3.29801e-05)
(0.0319652 0.112393 1.38907e-06)
(0.0377403 0.136864 -1.16918e-05)
(0.415666 2.46024 -0.0128594)
(0.381126 2.25544 -0.0118856)
(-0.00123202 -0.0101672 6.52756e-05)
(-0.00394526 -0.0258734 0.000149005)
(-0.0287714 -0.18053 0.000960117)
(-0.0256851 -0.161522 0.000852324)
(-0.00867453 -0.0532443 0.000296806)
(-0.00517291 -0.0329809 0.000186899)
(1.35311 0.895978 -0.00574977)
(1.36252 0.902241 -0.005777)
(1.36899 0.906559 -0.00577799)
(1.36322 0.902709 -0.00577713)
(-0.0223983 -0.132661 0.000730517)
(-0.0167453 -0.0999521 0.000550955)
(0.345858 2.04563 -0.0108049)
(0.370525 2.19244 -0.0115668)
(-0.0949026 -0.763826 0.00401964)
(-0.0301724 -0.189159 0.00100795)
(-0.0341421 -0.213614 0.00114465)
(-0.0102812 -0.062542 0.000346964)
(-0.0147664 -0.0885005 0.000488626)
(0.198413 0.860298 -0.00465125)
(0.509624 2.49773 -0.0132816)
(0.190379 0.825529 -0.00443865)
(0.475344 2.32892 -0.0124443)
(0.281809 2.39909 -0.0126607)
(0.290025 2.46944 -0.0130398)
(0.0653863 0.267341 -0.0010634)
(0.0531054 0.196875 -0.00104534)
(0.0559016 0.207283 -0.0011022)
(0.061508 0.251389 -0.00163976)
(0.0975697 0.426976 -0.00223144)
(0.0649772 0.297876 -0.0015423)
(0.0932145 0.407774 -0.0021251)
(0.0689804 0.316405 -0.00164435)
(0.0591653 0.219432 -0.00116822)
(0.0568324 0.210747 -0.00112156)
(0.0701197 0.286814 -0.00114456)
(-0.0023607 1.3731 -0.00707944)
(0.0572929 0.857944 -0.00447527)
(0.0585769 0.877297 -0.00457387)
(-0.00230544 1.34662 -0.00694445)
(-0.0641578 1.58244 -0.00810393)
(1.35068 0.894345 -0.00574138)
(-0.0648744 1.59984 -0.00818956)
(-0.00237993 1.38221 -0.00712296)
(0.0600266 0.899185 -0.0046823)
(-0.00241279 1.395 -0.00718499)
(0.0590014 0.883699 -0.00460599)
(-0.0637298 1.57198 -0.00805389)
(1.34774 0.892393 -0.00572924)
(-0.0625459 1.54302 -0.00790688)
(0.31549 2.68704 -0.0141324)
(0.309698 2.63749 -0.0138832)
(0.0428189 0.15859 -0.00083277)
(0.0470861 0.174473 -0.000921291)
(0.0550784 0.224944 -0.00145943)
(0.0519078 0.192419 -0.00102075)
(0.0597134 0.244009 -0.000964868)
(0.0485225 0.179817 -0.0009507)
(0.0819043 0.357889 -0.00184942)
(0.0596499 0.273214 -0.00140714)
(0.0870763 0.380706 -0.00197642)
(0.0549628 0.251508 -0.00128659)
(-0.0576506 1.42297 -0.00729639)
(-0.0598969 1.47815 -0.0075759)
(1.32662 0.87837 -0.00563704)
(0.0519007 0.7768 -0.00405879)
(-0.0020723 1.22834 -0.0063401)
(-0.00217717 1.28348 -0.00662093)
(0.0542171 0.811622 -0.00423843)
(-0.0022094 1.29977 -0.00670476)
(0.0567401 0.849595 -0.00443368)
(0.0550116 0.823577 -0.00429865)
(-0.00228048 1.33517 -0.00688822)
(-0.0605716 1.49469 -0.00766065)
(1.33209 0.881996 -0.00565943)
(-0.0620663 1.53131 -0.00784992)
(0.0749968 0.293791 -0.00163864)
(0.0751457 0.294244 -0.00164232)
(0.0552703 0.201885 -0.00114746)
(0.055501 0.202865 -0.00115463)
(0.0755048 0.295957 -0.00164867)
(0.239546 1.12927 -0.00611997)
(0.402192 1.96837 -0.0106397)
(0.225015 1.01484 -0.00552541)
(0.174294 0.754006 -0.00413925)
(0.1753 0.75852 -0.00415902)
(0.231944 1.04664 -0.00568919)
(0.40996 2.00673 -0.0108119)
(0.250761 1.18261 -0.00639534)
(0.0764355 0.29906 -0.0016651)
(0.0760721 0.297687 -0.00165894)
(0.0751385 0.294169 -0.00164184)
(0.0553153 0.202004 -0.00114749)
(0.0567372 0.207067 -0.00117021)
(0.262084 1.74628 -0.00927858)
(0.417599 2.60525 -0.0138717)
(0.274625 1.62303 -0.00865765)
(0.281136 1.66164 -0.0088599)
(0.447903 2.79476 -0.0148488)
(0.438308 2.73484 -0.014543)
(0.268742 1.79079 -0.00949857)
(-0.00214291 -0.0143837 0.000106863)
(-0.02684 -0.158365 0.000871398)
(0.0515489 0.251918 -0.00127558)
(0.00571895 0.0277679 -0.000111789)
(-0.0292432 -0.172272 0.000948086)
(-0.0096443 -0.0551759 0.000330744)
(-0.0661327 -0.43896 0.00237621)
(-0.053973 -0.335814 0.00182887)
(-0.0664959 -0.483216 0.00258613)
(-0.0522376 -0.325086 0.00176565)
(-0.0622273 -0.413126 0.00222438)
(0.458951 2.8639 -0.0152033)
(0.467984 2.92043 -0.0154885)
(0.291771 1.94478 -0.0102813)
(0.285966 1.90596 -0.0100849)
(-0.0213176 -0.11881 0.000688181)
(-0.0386012 -0.226477 0.00125192)
(0.0449688 0.21921 -0.00109552)
(0.00245817 0.0105148 -1.70494e-05)
(0.0388194 0.188623 -0.000927488)
(-0.036253 -0.21285 0.00117403)
(-0.0126197 -0.0713588 0.000420156)
(0.0291144 0.105146 -0.000603059)
(0.0294922 0.106596 -0.000612479)
(0.0291175 0.105129 -0.000602417)
(0.0299844 0.10818 -0.000615748)
(0.119079 0.348672 -0.00183341)
(0.14497 0.4247 -0.00226813)
(0.192406 0.446346 -0.00244782)
(0.187118 0.434069 -0.00237895)
(0.159804 0.370653 -0.00201937)
(0.167946 0.389566 -0.00213012)
(0.151954 0.445212 -0.00238452)
(-0.601007 1.95732 -0.00958399)
(1.31197 0.868621 -0.00556402)
(-0.0562458 1.38859 -0.00711769)
(-0.168261 1.5647 -0.00793128)
(-0.573598 1.86823 -0.00920837)
(-0.504135 1.6414 -0.00794138)
(-0.522162 1.70044 -0.00833236)
(-0.145573 1.35448 -0.00686223)
(-0.0504286 1.2458 -0.0063802)
(1.29491 0.857285 -0.00546625)
(-0.556436 1.81247 -0.00888017)
(0.0866038 0.315862 -0.00168779)
(0.0797702 0.290918 -0.00157083)
(0.139226 0.131163 -0.000799074)
(0.39749 -0.16503 0.000536597)
(0.383292 -0.159133 0.000515979)
(0.152829 0.14399 -0.000871155)
(0.05348 0.18706 -0.000990036)
(0.0499564 0.180147 -0.000960607)
(0.0454662 0.16393 -0.000884298)
(0.0401861 0.140472 -0.000762676)
(0.183309 0.172723 -0.00103773)
(0.414579 -0.172115 0.000550578)
(0.432313 -0.17944 0.00056648)
(0.168332 0.158609 -0.000953806)
(0.705272 3.45913 -0.00767659)
(0.229769 0.996538 -0.00217974)
(0.236124 1.02401 -0.00265354)
(0.681852 3.34357 -0.00868375)
(0.209585 0.908778 -0.00360288)
(0.62061 3.04236 -0.0114486)
(0.232622 1.00857 -0.00383793)
(0.636203 3.11882 -0.0122946)
(0.23905 1.03664 -0.00501723)
(0.6087 2.98396 -0.0139025)
(0.193483 0.839291 -0.00396839)
(0.576997 2.82862 -0.0136225)
(-0.0665888 -0.538442 0.00106546)
(-0.0338676 -0.248211 0.000523876)
(-0.048472 -0.353274 0.0018123)
(-0.0605994 -0.440707 0.00234228)
(-0.0989809 -0.796353 0.00421084)
(-0.0529781 -0.520896 0.00176085)
(-0.00536731 -0.161956 0.000585027)
(-0.00532895 -0.160868 0.000533038)
(2.08191e-05 -0.0170483 6.36581e-05)
(1.29595e-05 -0.0176169 5.32476e-05)
(-0.00178204 -0.0142678 3.39095e-05)
(-0.067507 -0.54566 0.00138571)
(-0.00227009 -0.0172765 4.67494e-05)
(-0.0695163 -0.56155 0.00190891)
(-0.00508599 -0.0346305 0.000131166)