/*--------------------------------*- C++ -*----------------------------------*\
| =========                 |                                                 |
| \\      /  F ield         | OpenFOAM: The Open Source CFD Toolbox           |
|  \\    /   O peration     | Version:  2306                                  |
|   \\  /    A nd           | Website:  www.openfoam.com                      |
|    \\/     M anipulation  |                                                 |
\*---------------------------------------------------------------------------*/
FoamFile
{
    version     2.0;
    format      ascii;
    arch        "LSB;label=32;scalar=64";
    class       volScalarField;
    location    "1.65";
    object      p;
}
// * * * * * * * * * * * * * * * * * * * * * * * * * * * * * * * * * * * * * //

dimensions      [0 2 -2 0 0 0 0];

internalField   nonuniform List<scalar> 
111542
(
61.1548
62.4793
65.6383
70.7912
77.9989
87.4532
99.2925
113.526
129.645
146.218
160.698
169.116
167.492
154.731
133.972
110.949
89.6081
71.3807
56.3301
44.2395
34.6857
27.3365
21.8092
17.6062
14.406
11.945
9.95348
8.40472
7.25202
6.36962
5.67533
5.11302
4.69415
4.34675
4.01717
3.6613
3.2236
2.69697
1.97816
0.971716
60.0011
61.2837
64.4071
69.4941
76.6869
86.282
98.6295
113.96
132.09
151.941
170.825
183.246
181.675
164.924
138.866
112.134
88.8418
69.6054
54.123
41.9602
32.6162
25.5609
20.275
16.3833
13.4561
11.1763
9.38191
7.99504
6.93097
6.09937
5.43789
4.90707
4.48182
4.12075
3.78228
3.42648
3.00775
2.47895
1.76763
0.814105
57.7201
58.9326
61.9077
66.8035
73.8727
83.605
96.6903
113.916
135.927
162.557
190.48
211.125
210.47
184.604
148.297
115.238
88.2491
66.969
50.6058
38.2611
29.1315
22.6847
18.0558
14.6395
11.8302
9.53265
7.79378
6.52717
5.59426
4.89437
4.36715
3.97016
3.66688
3.42213
3.19864
2.95752
2.65177
2.22264
1.59399
0.686472
54.3764
55.4584
58.1316
62.6017
69.2348
78.7391
92.2427
111.424
138.673
177.228
211.863
253.755
258.712
217.453
165.173
124.807
92.0907
67.3774
49.3736
36.3244
23.0766
17.0211
14.6445
13.232
11.2227
9.1442
7.48586
6.23674
5.264
4.49332
3.88998
3.42291
3.06048
2.77002
2.52031
2.27688
1.99162
1.59862
0.997622
0.0572751
50.098
50.9675
53.1338
56.8214
62.4535
70.8597
83.4683
102.685
132.523
176.968
253.281
338.735
361.863
253.882
169.577
121.081
81.9176
55.6221
38.3975
27.3843
19.9897
6.38052
5.53179
5.95361
5.22422
4.36605
3.76985
3.33509
2.97556
2.68063
2.45152
2.27798
2.14707
2.04201
1.94873
1.84828
1.7066
1.46523
0.995402
-0.0256782
45.1024
45.6703
47.1021
49.5855
53.4861
59.5294
69.0371
84.4549
110.538
164.934
258.112
452.116
616.633
244.35
172.361
113.39
66.0106
39.7335
24.4549
15.4131
10.2469
13.7581
13.0248
8.26398
4.95479
3.34478
2.46171
1.82304
1.33796
0.997113
0.772996
0.631534
0.547811
0.504148
0.487929
0.486312
0.48447
0.469997
0.450191
0.558891
39.706
39.8962
40.4061
41.3232
42.8233
45.2439
49.1705
55.5912
66.2077
105.396
180.679
409.518
1948.29
-422.724
207.023
79.9843
31.5895
16.041
7.66413
-2.6482
-9.01555
16.1378
15.4122
9.65148
6.13242
4.65419
3.88592
3.28746
2.79918
2.4314
2.16301
1.96422
1.81635
1.70647
1.62604
1.5679
1.5178
1.47036
1.43233
1.48534
34.3175
34.0938
33.5995
32.7912
31.5996
29.8592
27.1769
22.6197
13.8157
16.0007
-1.20655
-163.831
-1004.99
-1049.63
-313.68
-101.498
-46.1994
-25.7609
-16.5594
-10.2264
-2.35216
-7.59498
-5.78286
-4.25593
-3.44396
-2.59846
-1.77471
-1.1191
-0.616911
-0.209188
0.136544
0.432821
0.687517
0.905605
1.08931
1.23584
1.32892
1.33667
1.19092
0.753888
29.3147
28.7497
27.3122
24.8855
21.214
15.754
7.50197
-5.41483
-26.6026
-49.7937
-123.387
-268.064
-478.361
-506.892
-320.823
-175.185
-100.202
-60.7747
-38.7143
-24.7162
-14.6185
-7.99796
-4.00469
-1.22565
0.412437
1.40681
2.09061
2.55678
2.8515
3.0283
3.1296
3.18052
3.19448
3.17749
3.12832
3.03877
2.8837
2.61287
2.1287
1.23569
25.2042
24.3138
22.1033
18.3822
12.7863
4.60818
-7.33519
-24.9895
-51.6151
-92.8081
-150.489
-223.093
-288.328
-296.205
-238.257
-164.818
-109.309
-73.7344
-50.7176
-34.7894
-23.5124
-16.0269
-11.1098
-7.66207
-5.23596
-3.51447
-2.22849
-1.23453
-0.462392
0.140967
0.619913
1.00526
1.31433
1.5546
1.72331
1.81173
1.7947
1.62755
1.24772
0.605179
22.2643
21.1506
18.4081
13.8163
6.97248
-2.82775
-16.664
-36.0021
-62.6844
-98.557
-143.581
-192.562
-230.753
-237.491
-206.706
-157.597
-113.018
-80.5406
-57.7997
-41.275
-29.0234
-20.0894
-13.5959
-8.86515
-5.4226
-2.92586
-1.10351
0.235943
1.21772
1.93084
2.44348
2.80557
3.04989
3.19404
3.23563
3.18376
3.01333
2.67627
2.09939
1.15424
20.7342
19.5195
16.4934
11.4887
4.02991
-6.49297
-21.0719
-40.8233
-66.8783
-99.5713
-137.392
-174.946
-202.313
-207.993
-187.901
-151.635
-114.008
-83.5361
-60.9611
-44.1671
-31.5158
-22.0952
-15.2196
-10.2492
-6.69891
-4.14508
-2.2905
-0.929903
0.0766147
0.824912
1.38319
1.79918
2.10497
2.32209
2.39421
2.39452
2.27929
1.99645
1.49533
0.725266
60.6523
61.9282
65.0256
70.0328
77.0244
86.1818
97.6718
111.456
127.022
143.024
156.989
165.023
163.194
150.616
130.337
107.899
87.1838
69.4997
54.9066
43.159
33.9051
26.7585
21.3272
17.2236
14.0897
11.6402
9.69829
8.19009
7.04398
6.1683
5.49014
4.96011
4.54683
4.20482
3.89006
3.56073
3.17114
2.67224
1.98423
1.00884
59.5072
60.7551
63.7964
68.738
75.7163
85.017
96.9804
111.819
129.358
148.57
166.833
178.906
176.944
160.416
134.978
108.993
86.407
67.7638
52.7575
40.9605
31.8899
24.9944
19.8008
15.9852
13.1152
10.8692
9.10411
7.74042
6.69229
5.87701
5.23497
4.72594
4.31817
3.97527
3.66064
3.33568
2.95676
2.46879
1.79967
0.871758
57.2489
58.4286
61.3186
66.0693
72.9218
82.3481
95.0155
111.689
133.006
158.824
185.886
205.731
205.057
179.598
144.125
112.013
85.8482
65.2278
49.3722
37.4118
28.5699
22.2241
17.6038
14.2027
11.4405
9.20656
7.52911
6.31457
5.42258
4.75327
4.24863
3.86824
3.57775
3.34458
3.13655
2.91785
2.64515
2.25756
1.66981
0.76866
53.9408
54.9915
57.5832
61.9129
68.3328
77.5283
90.5957
109.175
135.624
173.163
208.227
249.289
253.901
212.827
161.545
122.122
90.1448
65.9804
48.3767
35.6117
22.266
16.3015
14.0073
12.5646
10.5272
8.48166
6.89696
5.73365
4.84347
4.14633
3.60598
3.19104
2.87259
2.62122
2.41029
2.21001
1.97881
1.65065
1.11511
0.192574
49.7109
50.5519
52.6458
56.2075
61.6463
69.7686
81.9695
100.613
129.671
174.109
249.411
333.676
355.744
247.952
165.458
118.61
80.307
54.5272
37.6186
26.7541
19.5793
4.41538
4.23744
5.11443
4.62013
3.90756
3.41451
3.04688
2.7231
2.4418
2.21347
2.0344
1.89803
1.79291
1.70885
1.63324
1.54033
1.37426
1.00027
0.0596118
44.7759
45.3199
46.6941
49.0778
52.8259
58.6476
67.8428
82.8337
108.362
162.7
255.618
448.265
610.622
237.154
166.929
112.58
65.346
39.1647
24.0325
15.0026
10.7714
10.7773
10.4526
6.26048
3.47131
2.27476
1.70861
1.30679
0.989817
0.760909
0.607686
0.509158
0.452293
0.427955
0.431372
0.458869
0.507628
0.576771
0.675437
0.873529
39.4433
39.6236
40.0955
40.947
42.3531
44.647
48.4139
54.6599
65.1544
104.396
179.979
411
1936.32
200.158
80.2012
31.2424
15.1528
6.99434
-2.22096
-7.79894
14.6721
14.1388
8.54625
5.20675
3.87646
3.19862
2.65374
2.19764
1.84553
1.58097
1.37968
1.22851
1.11894
1.04766
1.01345
1.01469
1.05487
1.14494
1.31467
34.1131
33.9005
33.3907
32.5565
31.3375
29.578
26.9082
22.4515
13.9594
16.3767
0.10377
-157.992
-982.637
-1036.1
-308.529
-100.037
-45.3313
-25.4554
-16.5552
-10.2465
-2.65918
-7.4548
-6.09196
-4.7688
-3.91237
-2.98219
-2.1061
-1.41701
-0.888156
-0.460714
-0.102487
0.201527
0.46241
0.687567
0.883644
1.05346
1.18917
1.26453
1.20991
0.849812
29.2027
28.6282
27.1944
24.7822
21.145
15.7608
7.6656
-4.94536
-25.5674
-48.5279
-120.498
-262.73
-470.08
-496.688
-314.944
-171.596
-97.9656
-59.5667
-38.1581
-24.5192
-14.6162
-8.29998
-4.58344
-1.86354
-0.152472
0.91339
1.63558
2.12063
2.42484
2.60433
2.70331
2.74954
2.75902
2.74037
2.69596
2.6221
2.49891
2.28087
1.8747
1.09263
25.1385
24.2525
22.0671
18.3901
12.8734
4.83887
-6.85572
-24.0905
-50.0305
-90.1528
-146.347
-217.136
-280.97
-288.375
-231.666
-160.134
-106.322
-72.0004
-49.8134
-34.4228
-23.5018
-16.2563
-11.4575
-8.03733
-5.60766
-3.87785
-2.58264
-1.5793
-0.799346
-0.190852
0.29098
0.67783
0.988429
1.23172
1.40829
1.51166
1.52011
1.39218
1.06883
0.503463
22.2402
21.1395
18.4303
13.8977
7.16502
-2.4548
-16.0012
-34.8914
-60.9047
-95.8386
-139.648
-187.264
-224.407
-230.989
-200.923
-153.217
-110.027
-78.6535
-56.6948
-40.71
-28.8338
-20.1563
-13.8133
-9.17332
-5.78141
-3.30843
-1.49385
-0.155211
0.827056
1.53969
2.05068
2.4103
2.65203
2.7953
2.84602
2.80496
2.65255
2.3469
1.8222
0.970422
20.735
19.5259
16.5502
11.5946
4.27628
-6.05662
-20.3327
-39.6414
-65.0298
-96.889
-133.696
-170.198
-196.776
-202.332
-182.818
-147.503
-110.998
-81.5461
-59.7331
-43.4861
-31.2149
-22.0578
-15.3569
-10.509
-7.01093
-4.47993
-2.63598
-1.27904
-0.272802
0.476123
1.03467
1.44994
1.75262
1.95815
2.06256
2.07409
1.97081
1.71283
1.25684
0.575291
59.6799
60.8856
63.8177
68.5399
75.1173
83.7132
94.4762
107.346
121.829
136.667
149.503
156.701
154.623
142.443
123.1
101.849
82.3182
65.6726
51.9414
40.8773
32.1495
25.3675
20.1685
16.2343
13.2338
10.8874
9.03332
7.58695
6.47666
5.62718
4.97345
4.46703
4.06992
3.74607
3.45857
3.16826
2.83205
2.39736
1.79616
0.941763
58.5562
59.7355
62.6074
67.262
73.8197
82.54
93.7308
107.577
123.906
141.751
158.663
169.574
167.441
151.512
127.318
102.789
81.5415
64.0169
49.9101
38.8157
30.2753
23.6996
18.7125
15.0725
12.351
10.2056
8.49658
7.15733
6.11671
5.30475
4.66757
4.16605
3.76729
3.43944
3.15042
2.86524
2.54308
2.13091
1.56179
0.766963
56.3423
57.4545
60.1753
64.6387
71.0627
79.881
91.7101
107.262
127.143
151.244
176.515
195.045
193.845
169.341
135.72
105.506
80.9264
61.5687
46.695
35.5071
27.342
21.2792
16.7395
13.4367
10.8061
8.66602
7.02415
5.81011
4.90732
4.22821
3.71928
3.34113
3.05912
2.84305
2.66385
2.49086
2.28513
1.98983
1.5172
0.735986
53.1035
54.0896
56.5193
60.5708
66.5679
75.1465
87.3311
104.669
129.419
164.712
199.24
238.344
242.213
202.183
153.195
115.928
85.5639
62.6314
45.9425
33.8649
21.1767
15.9344
13.6975
12.095
9.885
7.67972
5.94883
4.66384
3.68541
2.93485
2.36978
1.95287
1.65047
1.43228
1.27419
1.15203
1.03274
0.858839
0.523834
-0.155359
48.9682
49.75
51.6994
55.0112
60.0646
67.6143
78.9778
96.408
123.745
167.072
239.554
320.716
341.136
235.299
157.104
113.186
76.4624
51.7313
35.5082
25.0667
18.5399
4.82576
4.94143
5.66668
4.75778
3.59352
2.74591
2.13196
1.64833
1.27447
1.00222
0.813879
0.693808
0.625165
0.599732
0.611174
0.650092
0.680341
0.581315
-0.0608817
44.1536
44.6456
45.9045
48.0896
51.5318
56.9011
65.4403
79.488
103.693
156.881
248.031
436.725
593.812
222.376
158.969
108.712
63.4681
37.9874
23.0963
14.0933
13.0709
8.52806
7.42844
3.07408
-0.0190292
-1.56259
-2.34115
-2.81208
-3.10496
-3.25729
-3.30441
-3.28326
-3.20421
-3.08045
-2.91225
-2.69086
-2.3941
-1.98018
-1.35399
-0.217844
38.9433
39.1002
39.4966
40.2185
41.4342
43.4645
46.8789
52.6956
62.7663
101.521
176.853
407.621
1913.14
177.749
81.8336
32.3306
15.6328
6.69455
-2.92231
-8.8415
13.0119
11.5112
5.60047
2.31891
1.027
0.353208
-0.175611
-0.599281
-0.910326
-1.12531
-1.26571
-1.34536
-1.36355
-1.31964
-1.2033
-0.992189
-0.648032
-0.0899312
0.845542
33.7517
33.5307
32.99
32.1071
30.8316
29.024
26.3567
22.0543
14.1016
16.9985
2.71194
-148.601
-962.94
-1007.01
-296.99
-93.6201
-42.4408
-24.6186
-16.7403
-10.885
-4.32856
-8.52681
-7.92828
-6.98491
-6.01372
-4.89752
-3.88314
-3.07936
-2.44762
-1.93313
-1.50158
-1.13303
-0.813556
-0.529407
-0.262229
0.00155541
0.273313
0.547016
0.770762
0.737413
28.9747
28.4026
26.98
24.5968
21.0269
15.7885
7.99333
-4.0263
-23.5237
-45.4786
-113.815
-250.264
-450.691
-476.445
-300.605
-162.682
-92.8834
-56.9854
-37.0508
-24.2481
-14.8967
-9.45825
-5.96717
-3.2787
-1.522
-0.413637
0.340373
0.85682
1.19347
1.40403
1.53483
1.61596
1.6661
1.696
1.71586
1.72787
1.72219
1.66413
1.46524
0.918009
25.0192
24.1481
22.0094
18.4214
13.0652
5.31363
-5.89156
-22.2965
-46.861
-84.7593
-137.829
-204.833
-265.524
-272.586
-218.719
-151.091
-100.632
-68.6763
-48.0234
-33.6426
-23.4508
-16.801
-12.0916
-8.68822
-6.32375
-4.64909
-3.36903
-2.35199
-1.5451
-0.905182
-0.390083
0.0305124
0.376402
0.655926
0.876577
1.03587
1.11865
1.08971
0.888942
0.44148
22.2029
21.1241
18.4839
14.0792
7.56594
-1.69432
-14.6633
-32.6553
-57.3232
-90.3475
-131.695
-176.629
-211.761
-218.031
-189.637
-144.672
-104.167
-74.8757
-54.3754
-39.4071
-28.2576
-20.0857
-14.0004
-9.52016
-6.25961
-3.88234
-2.12315
-0.810674
0.162545
0.876385
1.39578
1.7695
2.03116
2.20068
2.28904
2.29582
2.20592
1.98369
1.56604
0.838237
20.7326
19.5564
16.6614
11.8486
4.77811
-5.16344
-18.8292
-37.228
-61.3163
-91.4549
-126.194
-160.602
-185.658
-190.933
-172.587
-139.383
-105.144
-77.5987
-57.1964
-41.962
-30.4184
-21.7707
-15.3922
-10.7339
-7.35143
-4.9003
-3.10948
-1.78156
-0.78646
-0.0369917
0.529464
0.957896
1.27814
1.5061
1.64744
1.69856
1.6441
1.45233
1.08111
0.489767
58.3011
59.4066
62.0924
66.4058
72.3907
80.1773
89.8772
101.407
114.292
127.38
138.522
144.458
142.057
130.537
112.649
93.1835
75.3711
60.2148
47.7152
37.6312
29.6455
23.3669
18.4557
14.6771
11.7973
9.57512
7.84294
6.50225
5.47685
4.69468
4.09492
3.63225
3.2716
2.98205
2.73308
2.49237
2.22397
1.8829
1.41371
0.753829
57.2081
58.2872
60.9119
65.1534
71.1057
78.9847
89.0444
101.423
115.936
131.695
146.507
155.62
153.246
138.357
116.146
93.8122
74.5164
58.6097
45.807
35.7298
27.9335
21.7387
16.8927
13.3472
10.7577
8.76193
7.18844
5.96185
5.01529
4.28232
3.71118
3.26472
2.91364
2.63108
2.39152
2.16805
1.92771
1.62633
1.20595
0.607682
55.0576
56.0706
58.5459
62.5942
68.3977
76.3285
86.9178
100.779
118.438
139.79
162.087
178.39
176.494
153.771
123.196
95.8672
73.6311
56.1459
42.736
32.6831
25.4186
19.3923
14.4774
11.1137
8.75021
6.94378
5.56964
4.55175
3.79534
3.22529
2.79535
2.47404
2.23609
2.05843
1.9235
1.81125
1.69521
1.52912
1.22967
0.644049
51.9172
52.8084
55.0027
58.6509
64.0312
71.6985
82.5529
97.966
119.97
151.441
184.301
219.821
222.564
184.891
139.995
106.092
78.2096
57.2392
42.0348
31.0558
18.9491
13.3448
10.3998
8.66519
6.87615
5.20351
3.90312
2.93742
2.19917
1.6262
1.18571
0.857067
0.618353
0.449492
0.34399
0.293281
0.285268
0.283564
0.193812
-0.222687
47.9157
48.6133
50.3518
53.2983
57.7834
64.4735
74.5426
90.0141
114.402
155.128
221.963
297.363
315.3
214.519
143.924
104.112
69.56
46.5844
31.6275
21.8786
14.7517
-3.44164
-1.66007
0.857037
1.10664
0.69461
0.344465
0.0537479
-0.225857
-0.477342
-0.686814
-0.842906
-0.952728
-1.01748
-1.02484
-0.960271
-0.803011
-0.548353
-0.27736
-0.433977
43.2664
43.6919
44.7821
46.6742
49.6589
54.3349
61.8192
74.2507
95.9641
146.245
233.158
413.929
562.29
196.943
149.283
104.178
58.4369
33.3836
19.1417
10.3127
2.55003
-3.58598
-1.17987
-1.50819
-2.57752
-3.20715
-3.52865
-3.77776
-4.00106
-4.18374
-4.31771
-4.41592
-4.4636
-4.45878
-4.38197
-4.19831
-3.84542
-3.2111
-2.09878
-0.203695
38.2514
38.3587
38.6439
39.1762
40.1042
41.7145
44.526
49.5077
58.4975
95.5445
169.153
399.373
1872.05
208.727
83.1471
27.2744
9.68703
1.11323
-8.0567
-15.7543
14.0197
11.1072
4.32234
0.485813
-1.33217
-2.40844
-3.18937
-3.7646
-4.17007
-4.44534
-4.6162
-4.71193
-4.73751
-4.6705
-4.48225
-4.11125
-3.44737
-2.29411
-0.335027
33.2466
33.0114
32.4255
31.4706
30.1031
28.1972
25.4721
21.2708
13.8913
17.1417
5.59706
-132.494
-906.119
-958.657
-275.88
-84.6135
-39.7935
-24.8434
-18.1816
-12.6471
-3.44344
-6.44721
-6.63248
-6.39254
-5.81827
-5.0424
-4.2986
-3.68591
-3.19538
-2.79667
-2.46598
-2.17482
-1.93181
-1.71126
-1.47943
-1.20784
-0.859317
-0.396372
0.174244
0.607349
28.6609
28.0922
26.6869
24.3441
20.8638
15.819
8.42532
-2.78346
-20.6785
-40.9102
-103.446
-229.512
-416.9
-441.121
-275.735
-148.54
-85.5696
-53.6137
-35.8374
-24.2601
-15.5816
-10.9388
-6.85755
-3.81987
-2.16566
-1.30595
-0.764913
-0.399516
-0.168037
-0.0290387
0.0568288
0.115458
0.157027
0.19545
0.246209
0.319787
0.421045
0.53923
0.609179
0.442313
24.8592
24.0128
21.9408
18.4823
13.3559
6.00516
-4.50693
-19.7241
-42.2743
-76.7868
-124.977
-185.869
-241.17
-247.685
-198.799
-137.688
-92.4566
-63.9354
-45.4516
-32.5262
-23.3965
-17.5001
-12.4809
-8.82158
-6.50309
-4.9705
-3.80991
-2.88021
-2.14046
-1.55299
-1.07799
-0.686143
-0.360649
-0.0900232
0.137904
0.325474
0.466319
0.537467
0.486468
0.233038
22.1502
21.1127
18.5733
14.3557
8.15809
-0.58621
-12.728
-29.4226
-52.1222
-82.3034
-119.911
-160.687
-192.604
-198.362
-172.695
-132.134
-95.7387
-69.4585
-51.008
-37.4735
-27.3653
-19.9052
-14.1023
-9.73438
-6.58804
-4.33411
-2.68205
-1.4549
-0.548794
0.113023
0.593698
0.940925
1.18723
1.3533
1.45313
1.4888
1.44993
1.30962
1.01697
0.490733
20.7449
19.6093
16.8324
12.2355
5.52069
-3.85692
-16.6512
-33.7391
-55.9439
-83.5459
-115.197
-146.442
-169.168
-173.997
-157.477
-127.583
-96.7699
-71.9648
-53.5405
-39.7241
-29.2099
-21.282
-15.3321
-10.8759
-7.59935
-5.23227
-3.51484
-2.24595
-1.29648
-0.582588
-0.043955
0.363644
0.669872
0.892424
1.03978
1.11036
1.09173
0.959627
0.681127
0.237037
56.6078
57.5886
59.9681
63.7746
69.0251
75.8051
84.1749
94.0145
104.864
115.686
124.626
128.918
126.08
115.487
99.5803
82.4544
66.8216
53.5121
42.5162
33.625
26.575
21.0345
16.6714
13.2473
10.5932
8.53512
6.93085
5.6874
4.73256
4.00051
3.43885
3.00696
2.67351
2.41276
2.19681
2.00007
1.79318
1.53962
1.19511
0.695763
55.5529
56.507
58.8246
62.5535
67.7537
74.5824
83.2179
93.7243
105.88
118.87
130.856
137.542
134.743
121.374
101.947
82.54
65.7491
51.8739
40.6875
31.8807
25.111
19.7627
15.5186
12.2566
9.78372
7.85577
6.32905
5.13592
4.2172
3.5082
2.96076
2.53876
2.21438
1.96106
1.76048
1.5903
1.4258
1.23421
0.967822
0.557075
53.4806
54.3699
56.54
60.0723
65.1015
71.9156
80.923
92.5817
107.255
124.762
142.729
155.563
152.855
132.923
106.726
83.3186
64.1884
49.1233
37.5664
29.0076
23.2562
18.3281
13.7214
10.3558
8.0474
6.33172
5.00908
3.99988
3.23645
2.66052
2.22427
1.8964
1.65692
1.4844
1.36694
1.29223
1.24741
1.20367
1.09378
0.735015
50.4618
51.2346
53.1356
56.2803
60.8852
67.3915
76.5138
89.3349
107.46
133.171
162.745
192.315
193.501
160.229
121.753
92.3951
68.0164
49.8644
36.761
27.5313
19.0187
16.5757
11.4847
7.66057
5.09267
3.22966
1.87185
0.905437
0.221989
-0.269929
-0.630914
-0.887214
-1.0544
-1.15316
-1.18161
-1.13154
-0.992285
-0.760619
-0.47233
-0.328062
46.6246
47.2184
48.6932
51.1807
54.9442
60.521
68.8549
81.5766
101.54
137.531
194.061
258.598
272.672
183.617
125.794
90.0145
58.9859
39.0328
26.271
18.4246
15.7
7.92279
5.68204
3.92958
2.19798
0.764586
-0.322728
-1.16308
-1.79362
-2.26594
-2.62795
-2.8866
-3.06044
-3.16695
-3.18916
-3.08849
-2.81553
-2.28999
-1.45943
-0.65195
42.1771
42.5231
43.4019
44.9226
47.3195
51.0748
57.0895
67.1114
84.7186
129.1
206.693
369.925
504.712
164.777
146.052
91.7465
47.6962
25.2031
13.0366
5.60282
-2.77954
-30.8717
-27.9875
-25.8499
-24.7317
-23.5838
-22.4722
-21.547
-20.8171
-20.2055
-19.6553
-19.1605
-18.6833
-18.1806
-17.6164
-16.9288
-15.9946
-14.558
-12.0409
-6.96538
37.406
37.4491
37.5943
37.8855
38.4372
39.4707
41.3983
45.0078
51.8506
84.6666
152.017
371.6
1796.89
253.522
68.9078
15.2909
-0.906237
-7.81935
-13.0913
-18.4492
-2.34582
-5.09427
-9.44585
-11.5875
-12.4231
-12.836
-13.1163
-13.3121
-13.413
-13.4249
-13.3795
-13.2462
-13.0298
-12.7102
-12.2266
-11.464
-10.1813
-7.90763
-3.86237
32.6286
32.3763
31.7334
30.6851
29.188
27.1237
24.2429
19.9892
12.9822
15.8456
6.6333
-114.797
-824.481
-858.54
-238.095
-75.9291
-40.2238
-28.3627
-22.5649
-17.1913
-11.4298
-21.2657
-17.685
-13.7863
-11.4675
-9.90612
-8.73845
-7.87974
-7.25769
-6.79778
-6.44365
-6.14859
-5.89816
-5.65777
-5.3856
-5.02914
-4.51382
-3.72016
-2.50598
-0.883951
28.2782
27.7175
26.3314
24.0346
20.6551
15.8281
8.89056
-1.3741
-17.3295
-35.2365
-89.5444
-199.222
-363.589
-383.217
-238.327
-129.904
-77.0121
-50.0542
-34.8252
-25.0392
-19.2183
-18.4403
-12.4205
-7.43622
-4.88681
-3.58348
-2.74737
-2.17144
-1.79416
-1.55501
-1.39858
-1.28951
-1.20747
-1.12488
-1.02043
-0.870232
-0.646161
-0.322256
0.0814974
0.344674
24.6678
23.8522
21.8633
18.5624
13.7151
6.85036
-2.8166
-16.5649
-36.5624
-66.6183
-108.054
-160.004
-206.904
-212.637
-171.695
-120.409
-82.3228
-58.0974
-42.2174
-31.1039
-23.5315
-19.1794
-14.2492
-10.255
-7.66688
-5.93825
-4.62554
-3.58237
-2.76406
-2.12594
-1.62175
-1.21508
-0.88586
-0.610366
-0.37284
-0.16107
0.0311131
0.196733
0.293587
0.199212
22.0946
21.1052
18.6925
14.7062
8.89741
0.789424
-10.328
-25.4035
-45.608
-72.0989
-104.709
-139.711
-167.034
-172.041
-150.396
-116.141
-85.2357
-62.6945
-46.6914
-34.8745
-26.078
-19.6632
-14.532
-10.4242
-7.33393
-5.06995
-3.38706
-2.121
-1.17387
-0.472936
0.0431969
0.422091
0.697295
0.893605
1.02736
1.10595
1.12605
1.06808
0.88455
0.467155
20.762
19.6816
17.0511
12.7204
6.44391
-2.23552
-13.9437
-29.393
-49.2211
-73.5755
-101.205
-128.246
-147.813
-152.017
-138.003
-112.626
-86.302
-64.9199
-48.8816
-36.7606
-27.4998
-20.5078
-15.2093
-11.1069
-7.9825
-5.66692
-3.95377
-2.66588
-1.68668
-0.940346
-0.371179
0.0633095
0.393259
0.638718
0.810702
0.911899
0.934381
0.857929
0.648878
0.257871
54.7135
55.5554
57.5912
60.8295
65.2583
70.9123
77.7914
85.73
94.2712
102.496
108.872
111.313
107.958
98.4841
84.9546
70.5762
57.4603
46.2464
36.9105
29.2729
23.1186
18.2225
14.3766
11.3794
9.04723
7.21768
5.77757
4.65666
3.7928
3.12385
2.60734
2.20756
1.89649
1.66011
1.46664
1.2964
1.12773
0.930089
0.687846
0.40019
53.7013
54.5169
56.49
59.6445
64.0027
69.6542
76.6872
85.0705
94.5123
104.221
112.559
116.681
113.274
101.773
85.7767
69.8942
56.0683
44.5271
35.1008
27.5201
21.4706
16.72
13.0155
10.177
7.99166
6.26445
4.88395
3.80923
2.99553
2.35664
1.85926
1.47476
1.17931
0.937861
0.754907
0.61318
0.492197
0.380957
0.259889
0.138458
51.7166
52.4699
54.2979
57.2516
61.4123
66.9693
74.1817
83.3042
94.4577
107.282
119.879
127.786
124.108
107.732
86.9796
68.5444
53.3622
41.1815
31.6141
24.18
18.2623
13.993
10.4701
7.78909
5.78733
4.25213
3.08052
2.17397
1.4713
0.957118
0.576225
0.295515
0.097053
-0.0301873
-0.10614
-0.130106
-0.105608
-0.0341639
0.0645371
0.148405
48.8331
49.4779
51.0502
53.6297
57.3616
62.5508
69.6789
79.4399
92.7869
110.863
135.033
155.585
154.608
128.075
97.909
74.5843
55.1438
40.5778
29.8725
22.0331
11.3896
8.71788
5.73352
3.18583
1.17941
-0.403675
-1.62827
-2.518
-3.13027
-3.54356
-3.83129
-4.01967
-4.12333
-4.16059
-4.12525
-3.99487
-3.74758
-3.33345
-2.67558
-1.60427
45.1828
45.661
46.8412
48.8126
51.7587
56.0571
62.3498
71.7179
85.9778
114.606
154.579
199.378
205.235
136.191
94.7723
67.1341
42.9547
27.4346
17.3879
11.1908
9.64656
-2.14931
-3.58878
-4.96543
-6.31448
-7.20874
-7.97072
-8.6817
-9.08292
-9.26746
-9.35882
-9.39535
-9.3568
-9.24486
-9.08162
-8.79096
-8.2983
-7.45757
-6.03253
-3.69169
40.9648
41.2194
41.8617
42.9642
44.6903
47.3697
51.6091
58.5566
70.4788
104.728
163.72
286.058
384.697
100.711
109.438
54.6171
18.9468
1.67065
-7.3735
-12.1819
-10.398
-24.0361
-26.1771
-30.5861
-32.1358
-32.1821
-31.5739
-30.6801
-29.8538
-29.089
-28.3242
-27.5387
-26.774
-26.0119
-25.1701
-24.1823
-22.9005
-20.9759
-17.5957
-10.7616
36.4502
36.4371
36.4264
36.4442
36.5603
36.9084
37.7318
39.4871
43.0546
67.7942
119.236
299.862
1613.23
250.444
-19.0199
-60.4281
-68.137
-69.031
-67.1354
-62.4798
-36.2797
-35.3533
-37.152
-37.1676
-36.1901
-35.0311
-33.9273
-32.9265
-31.9804
-31.053
-30.1619
-29.2761
-28.348
-27.3828
-26.2816
-24.8842
-22.8106
-19.1735
-11.644
31.9638
31.6706
30.9625
29.808
28.1573
25.8906
22.7677
18.2987
11.389
12.6381
4.41548
-89.6283
-657.702
-654.584
-192.303
-78.6758
-51.8873
-41.2925
-35.3211
-29.7301
-26.5634
-29.8964
-26.2698
-22.386
-19.9995
-18.3189
-17.0329
-16.0391
-15.2541
-14.6137
-14.067
-13.583
-13.1506
-12.6928
-12.1977
-11.6107
-10.8292
-9.66289
-7.75464
-4.37831
27.8581
27.3025
25.9392
23.6925
20.4214
15.8231
9.36296
0.110825
-13.5851
-28.841
-72.2737
-156.119
-279.448
-295.119
-188.444
-107.86
-67.3661
-45.7662
-33.119
-25.0081
-22.5089
-18.1136
-14.6785
-11.6303
-9.70155
-8.43038
-7.47067
-6.71455
-6.1218
-5.65702
-5.28376
-4.97291
-4.70942
-4.46082
-4.20299
-3.90608
-3.52515
-2.99678
-2.23674
-1.15124
24.4625
23.6872
21.785
18.6591
14.1215
7.79332
-0.939925
-13.0463
-30.1079
-54.8685
-87.9675
-128.029
-163.094
-168.123
-138.188
-99.5611
-69.9088
-50.3636
-37.1204
-27.6215
-21.0064
-17.3557
-13.9939
-11.1051
-8.92573
-7.29995
-6.02976
-5.01391
-4.20211
-3.55209
-3.02577
-2.59161
-2.23067
-1.91847
-1.63812
-1.37468
-1.11707
-0.857497
-0.599799
-0.359214
22.0413
21.1043
18.8369
15.111
9.73804
2.34169
-7.62915
-20.8826
-38.2391
-60.4229
-87.0547
-114.962
-136.477
-140.443
-123.974
-97.5941
-73.1163
-54.7099
-41.2933
-31.1962
-23.5628
-17.9915
-13.73
-10.3525
-7.74696
-5.78037
-4.28936
-3.14812
-2.27223
-1.601
-1.08585
-0.689563
-0.384684
-0.150158
0.028229
0.157865
0.236962
0.253323
0.182748
-1.97765e-05
20.7896
19.7732
17.309
13.2783
7.49439
-0.400907
-10.8896
-24.4936
-41.6257
-62.2536
-85.2066
-107.282
-123.042
-126.441
-115.487
-95.4039
-74.2563
-56.6796
-43.1939
-32.8267
-24.8025
-18.6993
-14.1047
-10.5876
-7.89314
-5.85019
-4.30373
-3.12289
-2.21405
-1.51242
-0.970115
-0.549817
-0.22461
0.0233719
0.204669
0.322642
0.370344
0.331163
0.185884
-0.0596369
52.7494
53.4463
55.1282
57.782
61.3683
65.8738
71.2408
77.2639
83.4969
89.1481
93.0209
93.6476
89.8417
81.5897
70.513
58.9234
48.3426
39.2262
31.5435
25.1634
19.9406
15.7385
12.4404
9.92382
7.9846
6.44802
5.22402
4.26384
3.52036
2.94554
2.50172
2.15888
1.8931
1.68477
1.51397
1.36267
1.20956
1.03064
0.800581
0.493554
51.7826
52.4534
54.0728
56.6375
60.1339
64.5874
69.9987
76.2471
82.9806
89.4577
94.3563
95.7026
91.6086
82.0342
69.5996
57.3492
46.5904
37.4553
29.8382
23.5739
18.4579
14.3379
11.1574
8.84544
7.10496
5.72655
4.62742
3.76285
3.08712
2.55403
2.13282
1.80045
1.53865
1.32954
1.16285
1.02644
0.904108
0.77654
0.615867
0.3877
49.8908
50.5008
51.9794
54.341
57.6164
61.8985
67.2993
73.8751
81.5087
89.6713
96.902
100.062
95.0038
81.8384
66.515
53.2368
42.21
32.9826
25.3989
19.2245
14.1531
10.1863
7.77365
6.0985
4.66132
3.47771
2.58942
1.94281
1.47248
1.13366
0.889236
0.715756
0.599028
0.526458
0.489417
0.486786
0.515718
0.56459
0.59718
0.502347
47.151
47.6583
48.8964
50.9009
53.7461
57.6031
62.7223
69.4136
77.9985
88.6555
99.5532
106.729
99.6584
79.1373
60.3109
46.7121
35.7246
26.9256
19.9408
14.0299
7.8551
1.72181
1.97533
2.48662
1.93981
1.08805
0.34101
-0.248131
-0.69942
-1.04395
-1.30747
-1.49937
-1.62374
-1.68804
-1.68856
-1.60943
-1.4332
-1.13475
-0.705215
-0.207575
43.6952
44.0519
44.931
46.3813
48.4982
51.5018
55.7288
61.6819
70.015
89.7179
109.983
129.204
122.286
80.9992
56.5334
42.3001
27.6425
17.3303
10.4217
5.40337
0.187672
-13.8884
-11.1154
-8.17016
-6.85957
-6.15819
-5.69007
-5.37335
-5.13131
-4.94668
-4.81395
-4.71229
-4.62151
-4.52606
-4.39119
-4.16894
-3.7961
-3.17361
-2.20753
-0.986928
39.7174
39.8762
40.2767
40.9571
42.0038
43.5928
46.0242
49.7996
55.7072
77.1984
103.444
145.716
163.866
27.157
20.9804
3.81357
-5.20986
-9.13559
-12.1355
-14.6768
-21.2968
-13.8354
-15.2031
-17.2555
-17.8954
-17.8323
-17.5172
-17.1069
-16.684
-16.256
-15.8159
-15.3537
-14.9002
-14.4513
-13.9454
-13.3209
-12.4666
-11.1506
-8.94435
-5.1616
35.4748
35.4
35.2303
34.9722
34.6491
34.303
33.9923
33.7949
33.7647
47.7847
59.2338
129.229
170.29
-696.169
-127.133
-86.2933
-61.4135
-56.7862
-53.9888
-52.1064
-68.0897
-40.3754
-38.2751
-36.1404
-34.1529
-32.2133
-30.4767
-28.9787
-27.6818
-26.5295
-25.4817
-24.5206
-23.6284
-22.7472
-21.8416
-20.8448
-19.6378
-17.935
-15.1122
-9.58395
31.2732
30.9519
30.1793
28.919
27.1176
24.6474
21.2604
16.4907
9.41991
8.06044
-13.2443
-80.0015
-303.455
-258.75
-107.924
-57.8318
-35.336
-25.7429
-20.8257
-16.7784
-8.88478
6.09752
2.36944
-1.61461
-3.31764
-4.14255
-4.68041
-5.04303
-5.26971
-5.39851
-5.45857
-5.47576
-5.448
-5.35319
-5.17737
-4.89756
-4.44716
-3.7015
-2.5008
-0.892139
27.4357
26.8841
25.5467
23.3571
20.2032
15.8394
9.83746
1.45614
-10.6894
-29.4244
-52.8106
-106.494
-176.396
-188.536
-129.817
-80.8646
-53.0339
-36.6033
-26.5035
-19.2334
-9.64771
-1.19547
-2.51801
-4.06977
-4.10492
-3.64588
-3.18779
-2.7869
-2.43657
-2.14096
-1.89857
-1.69935
-1.53542
-1.39338
-1.24207
-1.05942
-0.820303
-0.49232
-0.0870743
0.203803
24.2608
23.5193
21.7193
18.7803
14.5659
8.79033
1.00507
-9.4612
-23.58
-42.6042
-67.0761
-94.6483
-117.595
-121.63
-103.403
-77.738
-56.4699
-41.4955
-30.8337
-22.6237
-15.6674
-11.0132
-8.4589
-6.60049
-4.90449
-3.50019
-2.44095
-1.65127
-1.05361
-0.59923
-0.25363
0.0110442
0.212777
0.3706
0.504535
0.623862
0.730539
0.811751
0.809592
0.541859
21.9999
21.126
19.0055
15.5537
10.6365
3.97601
-4.81998
-16.2184
-30.6768
-48.4102
-68.7781
-89.4128
-104.761
-107.909
-96.9933
-78.5456
-60.5326
-46.2247
-35.3533
-26.8626
-20.076
-14.8304
-10.8296
-7.88412
-5.66031
-3.95184
-2.64499
-1.6457
-0.877962
-0.287362
0.164858
0.508443
0.765729
0.954027
1.08523
1.16423
1.18447
1.12214
0.923118
0.473867
20.8317
19.8854
17.5972
13.8835
8.61586
1.5328
-7.70407
-19.4231
-33.8079
-50.6303
-68.7909
-85.8044
-97.6847
-100.336
-92.5426
-77.8437
-61.8284
-48.0037
-37.0274
-28.3559
-21.4503
-16.0227
-11.8601
-8.72223
-6.3235
-4.4559
-3.00157
-1.87627
-1.00841
-0.340408
0.171367
0.559987
0.850423
1.05987
1.19812
1.26774
1.25886
1.14705
0.886184
0.397492
50.8495
51.4066
52.7487
54.8485
57.6401
61.0723
65.0444
69.3308
73.519
76.9611
78.7816
78.031
74.0725
67.1014
58.3003
49.2175
40.8764
33.6074
27.4051
22.1981
17.9063
14.4491
11.7388
9.64915
8.00198
6.66415
5.57538
4.70222
4.01013
3.46239
3.02767
2.68072
2.40034
2.16734
1.96399
1.77179
1.56843
1.32682
1.01519
0.598168
49.9278
50.4595
51.7395
53.7497
56.4364
59.7777
63.707
68.0454
72.4248
76.2032
78.4077
77.8388
73.5805
65.906
56.5202
47.2862
39.0542
31.9321
25.8834
20.8488
16.7349
13.4628
10.9748
9.09764
7.60585
6.37924
5.3764
4.56521
3.91004
3.3783
2.94468
2.58956
2.29658
2.05046
1.83695
1.64262
1.44796
1.22666
0.941424
0.546173
48.1275
48.6014
49.7447
51.5525
54.0048
57.1178
60.8908
65.2397
69.9015
74.2824
77.2361
76.9925
71.8297
62.3404
51.8175
42.6237
34.8374
28.0561
22.2817
17.5181
13.6831
10.8022
8.93854
7.48251
6.13748
4.97326
4.05587
3.35605
2.81943
2.40525
2.08601
1.84089
1.65414
1.51261
1.40531
1.3235
1.25344
1.16916
1.01657
0.678996
45.5288
45.9077
46.8274
48.2947
50.3263
52.9812
56.3353
60.4274
65.174
70.157