/*--------------------------------*- C++ -*----------------------------------*\
| =========                 |                                                 |
| \\      /  F ield         | OpenFOAM: The Open Source CFD Toolbox           |
|  \\    /   O peration     | Version:  2306                                  |
|   \\  /    A nd           | Website:  www.openfoam.com                      |
|    \\/     M anipulation  |                                                 |
\*---------------------------------------------------------------------------*/
FoamFile
{
    version     2.0;
    format      ascii;
    arch        "LSB;label=32;scalar=64";
    class       surfaceScalarField;
    location    "1.65";
    object      phi;
}
// * * * * * * * * * * * * * * * * * * * * * * * * * * * * * * * * * * * * * //

dimensions      [0 3 -1 0 0 0 0];

oriented        oriented;

internalField   nonuniform List<scalar> 
338621
(
24.9948
0.00256412
0.00129832
24.9869
0.00518965
0.00273196
24.9744
0.008083
0.00439094
24.9568
0.0111208
0.00639963
24.9333
0.0144205
0.00905375
24.9003
0.0203971
0.0125047
24.8534
0.0298356
0.016854
24.7905
0.0403474
0.0224015
24.7288
0.0320103
0.0293745
24.686
0.00461465
0.0376906
24.6583
-0.0200297
0.0472171
24.585
0.0151697
0.0575371
24.6138
-0.097901
0.0683884
24.7441
-0.209642
0.0787561
24.7853
-0.129715
0.0879085
24.817
-0.127428
0.0953185
24.8454
-0.129438
0.10089
24.8684
-0.128206
0.105046
24.888
-0.127573
0.107914
24.915
-0.13691
0.109887
24.9455
-0.141449
0.111008
24.969
-0.135246
0.111743
24.9873
-0.130557
0.112275
25.0025
-0.127704
0.112574
25.0153
-0.125698
0.112863
25.026
-0.123927
0.1132
25.0352
-0.122735
0.113547
25.0429
-0.12158
0.113912
25.0492
-0.120631
0.11439
25.0544
-0.120149
0.114943
25.0587
-0.119884
0.115532
25.0625
-0.119839
0.1161
25.0657
-0.119928
0.116723
25.0685
-0.120129
0.117344
25.071
-0.120435
0.117882
25.0738
-0.121122
0.118336
25.0768
-0.121663
0.118631
25.0802
-0.122223
0.118822
25.0842
-0.12283
0.118845
-0.12374
0.118429
24.9948
0.0050925
0.00127356
24.9868
0.0104957
0.00264464
24.9739
0.0166704
0.00427792
24.9563
0.022472
0.00625933
24.9327
0.0290387
0.00887944
24.903
0.0378502
0.0122121
24.8672
0.0489086
0.0165988
24.8214
0.0636559
0.0222224
24.757
0.066754
0.0293579
24.6828
0.0404745
0.0380572
24.6405
-0.0265088
0.0483465
24.6278
-0.0320711
0.0593999
24.6665
-0.209145
0.0719061
24.7502
-0.377453
0.0836079
24.8298
-0.30335
0.093557
24.8975
-0.296715
0.101353
24.9492
-0.288396
0.107079
24.9911
-0.28136
0.111189
25.0362
-0.286653
0.114015
25.0706
-0.287058
0.115797
25.0915
-0.279249
0.116887
25.1067
-0.267967
0.117517
25.1174
-0.259259
0.118018
25.126
-0.254614
0.118336
25.1326
-0.250888
0.118619
25.1378
-0.247967
0.118896
25.1411
-0.245348
0.119257
25.1437
-0.243821
0.119667
25.1457
-0.242798
0.120161
25.1468
-0.241947
0.120724
25.1473
-0.24173
0.12133
25.1471
-0.241617
0.121955
25.1469
-0.242318
0.122595
25.1466
-0.24301
0.123208
25.1463
-0.243916
0.123751
25.1462
-0.245257
0.124238
25.1465
-0.246495
0.124547
25.1474
-0.247832
0.124762
25.1492
-0.249458
0.124767
-0.250472
0.12439
24.9951
0.00725647
0.00121204
24.9873
0.0158547
0.0025132
24.9751
0.024806
0.00403047
24.9569
0.0346775
0.00598539
24.9323
0.0450668
0.00850364
24.9009
0.0573761
0.0117753
24.8609
0.0726281
0.0161882
24.8117
0.0907323
0.0219242
24.7429
0.105912
0.0294533
24.6451
0.0989234
0.0390722
24.5691
0.00538422
0.0508742
-0.00612037
0.00503843
-0.00590492
24.6663
-0.0387558
0.0649239
-0.0584979
-0.0386698
-0.0586539
24.5585
-0.0111514
0.078495
-0.0954434
0.0207193
-0.0944626
24.7304
-0.182341
0.0919968
-0.124178
-0.212638
-0.122596
24.8229
-0.129396
0.102578
-0.122203
-0.127271
-0.119749
24.883
-0.118942
0.11048
-0.117178
-0.116305
-0.114978
24.9366
-0.115447
0.116096
-0.115758
-0.113511
-0.113303
25.0023
-0.118168
0.119967
-0.117119
-0.116255
-0.115294
25.0453
-0.114614
0.122482
-0.113145
-0.112855
-0.111492
25.0714
-0.110684
0.123831
-0.109512
-0.108969
-0.107777
25.0904
-0.422572
0.124424
25.1054
-0.407574
0.124646
25.1151
-0.393948
0.124908
25.1228
-0.38747
0.125174
25.129
-0.382528
0.125446
25.1335
-0.378173
0.125705
25.1364
-0.374228
0.125997
25.1385
-0.372202
0.12636
25.139
-0.370175
0.126804
25.1393
-0.369558
0.12733
25.1387
-0.369024
0.127918
25.1378
-0.369269
0.128551
25.1363
-0.369993
0.129151
25.1348
-0.371351
0.12983
25.1331
-0.372535
0.130382
25.1314
-0.374491
0.130893
25.1304
-0.376663
0.131218
25.1299
-0.378778
0.131422
25.1299
-0.380871
0.131401
-0.382721
0.131029
24.9955
0.00965758
0.00111695
24.9886
0.020435
0.00231461
24.9767
0.0330326
0.00368816
24.9596
0.0461382
0.00553104
24.9349
0.0618562
0.00787162
24.9004
0.0808151
0.0110043
24.8548
0.102815
0.0152771
24.7968
0.127673
0.0210086
24.7303
0.143473
0.0288077
6.14156
0.0369501
0.0392878
0.0541262
0.037834
0.0536344
6.16368
6.14055
6.16154
6.12401
0.017185
0.00573754
-6.11095
6.09881
-0.0342
0.00756972
-6.1027
6.12409
-0.0421047
0.00953895
-6.11624
6.14299
-0.220762
0.0116518
-6.16162
6.1758
-0.156875
0.0132872
-6.18906
6.19974
-0.143994
0.0143598
-6.21107
6.22538
-0.144877
0.0151285
-6.23734
6.24454
-0.140984
0.0156278
-6.25034
6.25555
-0.135699
0.0158869
-6.25998
6.26405
-0.130757
0.0160121
25.1008
-0.142947
0.132385
-0.143477
-0.143382
-0.145098
-6.26772
-6.27244
-6.2682
-6.27248
25.1085
-0.547233
0.131931
25.1133
-0.530049
0.13138
25.1178
-0.523198
0.131174
25.1201
-0.516146
0.131373
25.1203
-0.510263
0.131831
25.1199
-0.506236
0.13248
25.1177
-0.50334
0.133268
25.1143
-0.500839
0.13414
25.1096
-0.499892
0.135047
25.104
-0.499412
0.135944
25.0975
-0.499533
0.1368
25.09
-0.50011
0.137543
25.0822
-0.50184
0.138299
25.0743
-0.503387
0.138834
25.066
-0.50548
0.139248
25.0579
-0.507998
0.139393
25.0503
-0.510392
0.139272
25.0442
-0.513625
0.138869
-0.515562
0.138042
24.9972
0.0103297
0.000988186
24.9912
0.0244232
0.00204446
24.9813
0.0396424
0.0032468
24.9657
0.0567822
0.00487553
24.9428
0.077811
0.00694566
24.9094
0.10446
0.0097319
24.8595
0.139075
0.013532
24.7855
0.18281
0.01881
6.17136
0.232338
0.0260441
6.16411
6.17095
6.16406
6.15533
0.0490698
0.00390095
6.12998
0.00547705
-6.15787
0.0200724
0.0118874
0.0116337
0.0203162
-0.0414998
-6.07721
6.04295
0.00747514
-0.00217735
0.004215
0.00369685
-0.00186581
0.022904
-6.0423
6.06033
0.00992244
0.029189
-0.0400613
-0.0403682
-0.0190051
0.042285
-6.11239
6.13736
0.0128527
-0.0520206
-0.0667281
-0.104655
-0.052489
0.238066
-6.16962
6.1816
0.0145326
-0.0509556
-0.0548587
-0.0541177
-0.0514149
0.184834
-6.19336
6.20694
0.0153776
-0.0514966
-0.0507361
-0.0506063
-0.0515746
0.175471
-6.22068
6.23267
0.0157786
-0.0496894
-0.0495933
-0.0495614
-0.0497231
0.170832
-6.24242
6.24972
0.0157972
-0.0468337
-0.0467003
-0.0466926
-0.0468475
0.163992
-6.25611
6.26068
0.0155967
-0.0440794
-0.0441819
-0.0442209
-0.0440465
0.156371
-6.26478
6.26703
0.0153355
-0.0417242
-0.0419654
-0.0420642
-0.0416259
0.149796
-6.27041
6.27222
-0.159605
0.0148477
25.0523
-0.643459
0.124049
-6.27269
-6.26804
-6.2732
-6.26621
25.0318
-0.630619
0.12113
25.0088
-0.618746
0.118459
24.9851
-0.608983
0.116616
24.9617
-0.602547
0.115651
24.9383
-0.598251
0.115416
24.9146
-0.595346
0.115683
24.8912
-0.593705
0.116248
24.8673
-0.592923
0.11693
24.8434
-0.593086
0.117606
24.8197
-0.593992
0.118183
24.7964
-0.595366
0.118566
24.7731
-0.597354
0.118818
24.7507
-0.599835
0.118782
24.7293
-0.602506
0.118462
24.7091
-0.605538
0.117777
24.6908
-0.608796
0.116667
24.6748
-0.612704
0.115122
-0.617978
0.11304
24.9998
0.00896553
0.000827554
24.9965
0.0260917
0.00170387
24.9889
0.0445065
0.00270917
24.9771
0.0645587
0.00399419
24.9595
0.089718
0.00568742
24.9324
0.12356
0.00790975
24.8894
0.17117
0.0108747
24.8173
0.2399
0.0150005
6.171
0.346087
0.0205137
6.17057
6.17098
6.17039
-0.0650358
6.14546
0.0875123
0.00305793
-0.0196464
-1.52771
1.52258
0.0242079
0.000570778
-0.0195098
-1.50442
1.4923
0.0309184
0.000709936
-1.46865
0.0519921
1.47848
-0.0629523
0.00113627
-1.5297
0.0845051
1.53826
-0.0944998
0.00143949
-1.53622
0.06175
-0.065667
0.00184883
1.53829
-1.5477
0.0599738
-0.0643474
0.0017652
1.55031
0.0571905
-1.55628
1.55783
-0.0602782
0.00153599
0.052356
-1.56108
1.56173
-0.0541666
0.00116192
0.0485221
-1.56269
1.56288
-0.0494453
0.00072876
0.0452043
-1.56262
1.56237
-0.0453684
0.000409785
-1.55744
0.167419
6.17542
-0.144272
0.00332988
-1.54422
-1.55723
-1.543
23.8357
-0.728181
0.0505016
-6.11186
-5.80242
-6.09526
-5.79196
23.8588
-0.70378
0.0500781
23.878
-0.688334
0.0504264
23.8949
-0.677054
0.0511598
23.9091
-0.669073
0.0522837
23.9208
-0.663421
0.0534949
23.9305
-0.659512
0.0544857
23.9386
-0.656917
0.0550651
23.9459
-0.655381
0.0551553
23.9527
-0.654673
0.0547547
23.9594
-0.654598
0.0539028
23.9666
-0.655132
0.0526358
23.9742
-0.656021
0.0510791
23.9822
-0.657115
0.049232
23.991
-0.658485
0.047138
24.0005
-0.6598
0.044803
24.0105
-0.661024
0.0421885
24.0207
-0.662073
0.0392272
-0.662494
0.0359298
25.0031
0.00503644
0.000660098
25.0036
0.0241676
0.00132919
25.0008
0.0452266
0.00209185
24.9952
0.0671839
0.00299138
24.9865
0.0942628
0.00414801
24.9731
0.131347
0.0056484
24.9535
0.183206
0.00750112
24.9226
0.26094
0.0098509
6.21356
0.386496
0.0125591
6.2216
6.21324
6.22126
-0.105831
6.19825
0.119366
0.00177575
-0.0393058
-1.5422
1.53609
0.0451313
0.000291647
-0.082305
-1.50686
1.48847
0.100471
0.000225774
0.00436681
-0.0746881
0.0748667
-0.00459138
4.58839e-05
-0.0213975
0.000450848
0.0209092
2.51324e-06
3.49974e-05
-0.189327
0.00648106
-0.0169263
-0.00469234
0.204464
-1.15995
0.0532367
-0.0726417
-0.00124585
1.1806
0.0478239
-1.22317
1.23183
-0.0561298
-0.000346177
0.0454369
-1.25669
1.26448
-0.0541597
0.000935187
0.0407961
-1.28405
1.29036
-0.0484671
0.00136001
0.0374477
-1.30828
1.31578
-0.0456437
0.00069331
-1.36409
0.163867
5.74791
-0.203376
-0.00683852
-1.48442
-1.36792
-1.48514
24.0648
-0.662167
-0.0896788
-5.82065
-6.16705
-5.8857
-6.16776
24.0833
-0.632825
-0.0894289
24.1024
-0.618084
-0.0893772
24.1229
-0.607841
-0.0897119
24.144
-0.59998
-0.0902272
24.1657
-0.59446
-0.0906309
24.188
-0.590905
-0.0908749
24.2107
-0.588737
-0.0908678
24.2336
-0.587666
-0.0906766
24.2567
-0.58738
-0.0903556
24.2797
-0.587635
-0.089996
24.3025
-0.588333
-0.0895904
24.325
-0.589224
-0.0892692
24.347
-0.590142
-0.0889686
24.3682
-0.590887
-0.0887783
24.3886
-0.59154
-0.088747
24.4082
-0.591688
-0.0889148
24.4265
-0.590987
-0.089391
-0.588466
-0.0902057
25.0049
-1.68465e-05
0.000471691
25.0102
0.0178812
0.000933771
25.0153
0.0387617
0.00141561
25.0194
0.0611394
0.00195395
25.0214
0.089704
0.00252906
25.0266
0.122964
0.00319986
25.0388
0.16718
0.0038153
25.0649
0.230691
0.00417416
6.27464
0.331032
0.00388465
6.28243
6.27484
6.28467
-0.111394
6.28246
0.103206
0.000378723
-0.0445079
-1.57808
1.57981
0.0427792
1.59355e-06
-0.083798
-1.59853
1.61363
-0.000260736
0.0689642
-0.0255687
-1.71348
1.75201
-0.00120722
0.055378
-0.0207766
-0.0256417
-0.0207199
0.101338
-1.71324
1.68345
-0.00132178
-0.0702252
0.102993
-1.60928
-0.00150327
1.5987
-0.09091
0.0782714
-1.58427
-0.00149152
1.58137
-0.0738826
0.0568314
-1.57676
1.57582
-0.054377
-0.00151837
0.0571973
-1.57405
1.57223
-0.0538944
-0.00148515
0.0511494
-1.57177
1.5711
-0.0490579
-0.00142
0.0471668
-1.57009
1.56957
-0.0452706
-0.00137596
-1.56714
0.173801
6.26362
-0.157408
-0.0123163
-1.56671
-1.56697
-1.56688
25.0684
-0.538243
-0.119485
-6.2673
-6.26739
-6.26998
-6.26819
25.0706
-0.516655
-0.118351
25.0692
-0.49975
-0.116911
25.0669
-0.489823
-0.115721
25.0648
-0.482982
-0.114907
25.063
-0.478313
-0.114355
25.0614
-0.475195
-0.114104
25.0597
-0.472995
-0.114052
25.0584
-0.472169
-0.114206
25.0572
-0.471666
-0.114542
25.0561
-0.471384
-0.115092
25.0552
-0.471804
-0.115689
25.0546
-0.472087
-0.116489
25.0538
-0.472029
-0.117345
25.0536
-0.472348
-0.118349
25.0537
-0.472166
-0.119495
25.0543
-0.471497
-0.120784
25.0556
-0.470006
-0.122262
-0.467871
-0.123841
25.0058
-0.00511531
0.000238624
25.0144
0.00875494
0.000532123
25.0276
0.0248334
0.000762172
25.0391
0.0487071
0.000936052
25.0546
0.0731904
0.00101023
25.0782
0.0984847
0.000883981
25.1162
0.128833
0.000387948
25.1796
0.168383
-0.000944627
6.32076
0.229961
-0.00362485
6.31895
6.3251
6.31953
-0.0884538
6.33689
0.0731135
-0.00078051
-0.0331257
6.41352
0.0872802
-0.00176816
-0.0342818
-0.0332219
-0.0338047
-6.36461
-0.0331184
6.51725
0.0747563
-0.0037111
-0.0258156
-0.0329117
-0.025683
-6.47076
-0.00678685
-6.54775
6.51378
-0.00710452
-0.00668164
0.0156174
-0.0070026
0.0459411
0.0460024
-6.53541
6.51344
-0.124949
-0.0096747
0.0397899
0.03672
0.034101
0.0555819
-6.44869
6.41096
-0.178934
-0.0118209
0.0560775
0.0579366
0.0589027
0.0567693
-6.371
6.33891
-0.176828
-0.0131901
0.055478
0.0557372
0.0541247
0.046918
-6.32088
6.30975
-0.158514
-0.0141957
0.0459719
0.0457908
0.0451499
0.0448228
-6.30115
6.29531
-0.157331
-0.0148286
0.0445683
0.0444188
0.0441743
0.0417073
-6.29089
6.28552
-0.144158
-0.0151355
0.0411766
0.0412229
0.0405523
0.0386313
-6.28126
6.2758
-0.131618
-0.015249
0.0381263
0.0381111
0.0374569
0.141913
-6.27421
6.27239
-0.12484
-0.0152482
25.0705
-0.402926
-0.126363
-6.26993
-6.27005
-6.27023
-6.26926
25.0635
-0.384726
-0.124945
25.0603
-0.372898
-0.123681
25.0582
-0.364895
-0.122754
25.0567
-0.359498
-0.122059
25.0556
-0.355659
-0.121512
25.0547
-0.353252
-0.12109
25.0543
-0.351769
-0.12078
25.0537
-0.351008
-0.120571
25.0532
-0.350744
-0.12045
25.0528
-0.35057
-0.120444
25.0526
-0.351068
-0.120484
25.0521
-0.351082
-0.12056
25.0524
-0.351599
-0.120747
25.0528
-0.35162
-0.12103
25.0532
-0.351202
-0.1214
25.0545
-0.350929
-0.121904
25.0572
-0.350102
-0.122594
-0.349152
-0.123493
25.0065
-0.0102945
0.000135535
25.0165
-0.00151801
0.000228379
25.0256
0.0154996
0.000227696
25.0424
0.0318039
0.000118368
25.0693
0.0465818
-0.000238376
25.103
0.065841
-0.000972644
25.1506
0.0835712
-0.0023162
25.2171
0.106731
-0.00474326
25.3261
0.130006
-0.00892321
25.431
0.142996
-0.0157347
-0.0609222
-0.0564364
-0.0582264
-0.0564334
25.5781
0.129606
-0.0260726
-0.0601273
-0.0634064
-0.0608341
-0.0660983
25.7112
0.0508832
-0.0408117
-0.0410954
-0.0271192
-0.0441939
-0.0304474
25.5885
-0.160542
-0.0586522
0.0225029
0.125466
0.0213536
0.172995
25.496
-0.242389
-0.0776453
0.0848222
0.11848
0.100433
0.109229
25.4275
-0.253367
-0.0935158
0.084504
0.149958
0.0329932
0.148251
25.3419
-0.357504
-0.105373
0.136786
0.139755
0.135035
0.136997
25.258
-0.326936
-0.113089
0.130444
0.13403
0.128132
0.1313
25.1922
-0.336116
-0.117846
0.133216
0.130047
0.130063
0.126366
25.1496
-0.313663
-0.120506
0.122718
0.11937
0.119411
0.115192
25.1265
-0.29294
-0.121812
0.111561
0.111121
0.106897
0.108175
25.108
-0.276644
-0.122226
0.106308
0.105387
0.103612
0.102026
25.0919
-0.264906
-0.121889
25.0825
-0.254091
-0.121215
25.0765
-0.24635
-0.120596
25.0722
-0.240434
-0.120147
25.0687
-0.236312
-0.119732
25.0663
-0.233856
-0.119442
25.0639
-0.231524
-0.119285
25.062
-0.230607
-0.119266
25.0601
-0.2297
-0.119383
25.0586
-0.229649
-0.119618
25.0576
-0.229596
-0.119962
25.0563
-0.229397
-0.120398
25.0557
-0.229713
-0.120822
25.055
-0.229483
-0.121364
25.0547
-0.229392
-0.121919
25.0553
-0.229342
-0.122519
25.0566
-0.229054
-0.123183
25.0582
-0.227716
-0.12394
-0.226542
-0.124791
25.0068
-0.0152641
2.51779e-05
25.0101
-0.00487431
8.95002e-06
25.0181
0.00767961
-0.00014885
25.038
0.0124156
-0.000440082
25.0637
0.0219168
-0.00106938
25.0934
0.038452
-0.00219815
25.1416
0.039555
-0.00404463
25.203
0.0525096
-0.00700348
25.2821
0.0627654
-0.0117125
25.3777
0.0665047
-0.0187381
25.4839
0.0525156
-0.028676
25.5628
0.0144985
-0.0420512
25.5396
-0.0788793
-0.0578199
25.5248
-0.152943
-0.0740311
25.4019
-0.0417871
-0.0882551
25.3196
-0.175308
-0.0995242
25.2699
-0.169852
-0.107196
25.2089
-0.162828
-0.112305
25.1647
-0.154156
-0.115291
25.1336
-0.144919
-0.116905
25.111
-0.136502
-0.117615
25.0937
-0.129994
-0.117614
25.0815
-0.124595
-0.117313
25.0727
-0.120693
-0.11686
25.0664
-0.117712
-0.116448
25.0619
-0.115768
-0.116007
25.0579
-0.114201
-0.115704
25.0553
-0.113352
-0.11554
25.0532
-0.1131
-0.115442
25.0516
-0.112604
-0.115474
25.0503
-0.112795
-0.115596
25.0491
-0.112608
-0.115796
25.0487
-0.112964
-0.116013
25.0481
-0.112881
-0.116275
25.0484
-0.113157
-0.116573
25.0488
-0.112908
-0.11687
25.0497
-0.113065
-0.117174
25.051
-0.112874
-0.117514
25.0536
-0.112383
-0.117932
-0.112753
-0.118482
24.9871
-1.50373e-05
24.9823
-5.44812e-05
24.9903
-0.000294738
25.0033
-0.000611211
25.0267
-0.00138951
25.0678
-0.00262971
25.1122
-0.00462981
25.1727
-0.00779138
25.2484
-0.0126649
25.3349
-0.0196296
25.4171
-0.0291257
25.4737
-0.0414052
25.4511
-0.0555664
25.3689
-0.0701271
25.411
-0.0832975
25.3304
-0.0943047
25.2627
-0.102016
25.207
-0.107025
25.1629
-0.110049
25.1297
-0.111704
25.1057
-0.112463
25.0882
-0.112579
25.0759
-0.112334
25.0671
-0.111887
25.0609
-0.111514
25.0563
-0.111169
25.0531
-0.110955
25.0506
-0.11094
25.0485
-0.11095
25.047
-0.111126
25.0456
-0.111426
25.0448
-0.111755
25.0439
-0.112109
25.0435
-0.112507
25.0433
-0.11297
25.0438
-0.113404
25.0446
-0.113816
25.046
-0.114235
25.0483
-0.114706
-0.115286
24.9951
0.00201534
0.00249283
24.9878
0.00481554
0.00518269
24.9764
0.00740539
0.0083497
24.9599
0.0105516
0.0122733
24.9381
0.013394
0.0172806
24.9084
0.0181057
0.0237972
24.8662
0.0263292
0.0322255
24.8087
0.0361802
0.0429931
24.7532
0.0275143
0.0564273
24.7173
-0.000547405
0.0728749
24.6931
-0.0218681
0.0917244
24.6316
0.00462329
0.112487
24.6608
-0.0967281
0.133906
24.7788
-0.195823
0.154616
24.8116
-0.119252
0.172688
24.8361
-0.117542
0.187175
24.8598
-0.121732
0.198145
24.8797
-0.121431
0.206242
24.8971
-0.121591
0.211982
24.9249
-0.133863
0.215914
24.9526
-0.135086
0.218407
24.9742
-0.129806
0.220036
24.9912
-0.125864
0.221135
25.0053
-0.123415
0.221944
25.0169
-0.121271
0.222625
25.0267
-0.119889
0.22327
25.0349
-0.118487
0.223932
25.0415
-0.117332
0.22463
25.0471
-0.116648
0.225405
25.052
-0.11616
0.226269
25.0559
-0.115593
0.227182
25.0591
-0.11518
0.228126
25.0622
-0.115415
0.229047
25.0653
-0.115756
0.229986
25.0681
-0.115693
0.230804
25.0711
-0.116267
0.231555
25.0744
-0.116643
0.232023
25.078
-0.117138
0.232339
25.0825
-0.117914
0.232265
-0.118546
0.231261
24.9952
0.00403569
0.00243415
24.988
0.00960383
0.00506086
24.9761
0.0153611
0.00816311
24.9597
0.0211347
0.0120286
24.9375
0.0273149
0.0169861
24.9096
0.0344172
0.0234845
24.8764
0.0437644
0.0319616
24.8338
0.0574145
0.0429555
24.7713
0.0616519
0.0569762
24.6961
0.0371771
0.0744486
24.6538
-0.0276604
0.0951144
24.5934
0.00452325
0.118353
24.6292
-0.204819
0.142394
24.7615
-0.411558
0.165497
24.842
-0.292506
0.185005
24.9098
-0.285108
0.20026
24.9604
-0.277271
0.211675
25.0012
-0.270997
0.219859
25.047
-0.278931
0.225585
25.0797
-0.280105
0.229342
25.0991
-0.269264
0.231697
25.1131
-0.259379
0.233205
25.1226
-0.251613
0.234289
25.1299
-0.247415
0.235126
25.1357
-0.244309
0.235846
25.1397
-0.241437
0.23653
25.1422
-0.239032
0.237253
25.1444
-0.237868
0.238043
25.1456
-0.236613
0.238911
25.1461
-0.235689
0.239839
25.1463
-0.235313
0.240807
25.1465
-0.235209
0.241783
25.146
-0.235109
0.242783
25.1455
-0.235721
0.243714
25.1455
-0.236547
0.244559
25.1453
-0.237066
0.245263
25.1457
-0.238274
0.245764
25.147
-0.239644
0.246012
25.1485
-0.240618
0.245937
-0.242067
0.244909
24.9954
0.00602759
0.00231529
24.9884
0.0142578
0.00481624
24.9767
0.0232189
0.0077831
24.9598
0.0324319
0.0115062
24.9367
0.0425024
0.0163313
24.9065
0.0533749
0.0227396
24.8684
0.0663996
0.0312722
24.822
0.0826484
0.0426255
24.7567
0.0982761
0.0576059
24.6622
0.0931129
0.0769364
24.5859
0.00452001
0.100852
-0.00591335
0.00438881
-0.00509739
24.7209
-0.0391352
0.128446
-0.0595076
-0.0384499
-0.0581658
24.5797
0.0207741
0.157184
-0.0951377
0.0227609
-0.0920245
24.7412
-0.214387
0.184561
-0.12323
-0.210798
-0.11852
24.8304
-0.12778
0.205677
-0.120253
-0.122943
-0.114625
24.8894
-0.117124
0.221374
-0.115938
-0.111949
-0.110192
24.9431
-0.114767
0.232899
-0.11451
-0.109331
-0.108891
25.0086
-0.117464
0.24093
-0.116512
-0.112084
-0.110998
25.0511
-0.114286
0.246247
-0.113031
-0.109161
-0.108441
25.0773
-0.110973
0.249401
-0.109351
-0.10665
-0.104665
25.0962
-0.414546
0.250917
25.1096
-0.399852
0.251779
25.1187
-0.38827
0.252493
25.1255
-0.382953
0.25389
25.1308
-0.379081
0.254994
25.1345
-0.375639
0.25622
25.1372
-0.372629
0.256866
25.1385
-0.370501
0.257723
25.139
-0.368807
0.258546
25.1395
-0.368228
0.259345
25.1387
-0.366709
0.260112
25.1378
-0.366527
0.260849
25.1371
-0.366569
0.261303
25.1355
-0.366545
0.262199
25.1338
-0.367182
0.262742
25.1325
-0.36803
0.263151
25.1314
-0.369299
0.263352
25.1307
-0.370775
0.263277
25.131
-0.372432
0.262888
-0.373962
0.261603
24.9964
0.00760283
0.00213268
24.9898
0.0187283
0.00443735
24.9785
0.0310169
0.00717995
24.9619
0.0438371
0.0106456
24.9386
0.0582977
0.0151895
24.9054
0.0760491
0.0213094
24.8607
0.0964497
0.0296765
24.8029
0.119969
0.0411434
24.7351
0.137678
0.0569207
6.14291
0.0370717
0.0784898
0.0518297
0.0370547
0.0514619
6.16296
6.14303
6.16245
-0.0113817
6.1259
0.0155997
0.0172626
-0.0151398
-6.11409
6.10241
-0.0353339
0.0229369
-0.0191769
-6.10654
6.09913
0.018199
0.029073
-0.0233865
-6.11448
6.14623
-0.258225
0.0353947
-0.026662
-6.16408
6.17769
-0.155027
0.0402546
-0.0289283
-6.19055
6.20122
-0.142467
0.0436012
-0.0305289
-6.21202
6.22635
-0.144597
0.0460696
-0.0315895
-6.23911
6.24634
-0.14085
0.0478
-0.0322009
-6.25218
6.25739
-0.136106
0.0488483
-0.0324791
-6.26119
6.26521
-0.131926
0.0494344
25.1015
-0.14545
0.276178
-0.145609
-0.144433
-0.142136
-6.26905
-6.27263
-6.26856
-6.27196
25.1096
-0.551565
0.275595
25.1144
-0.537033
0.275361
25.1185
-0.53288
0.277101
25.1205
-0.528559
0.278815
25.1204
-0.524513
0.280833
25.1196
-0.521603
0.282215
25.1176
-0.518815
0.283653
25.1143
-0.516222
0.284851
25.1096
-0.5143
0.2858
25.1044
-0.512072
0.286508
25.0983
-0.510564
0.287003
25.0912
-0.508992
0.287032
25.0837
-0.508202
0.287399
25.0759
-0.507716
0.287222
25.0681
-0.507889
0.286907
25.06
-0.507951
0.286179
25.0523
-0.508948
0.285054
25.0463
-0.510931
0.283425
-0.51214
0.280716
24.9982
0.00748381
0.00188479
24.9928
0.0221979
0.00392126
24.983
0.0376697
0.00633854
24.9681
0.0541616
0.0093977
24.9458
0.0740508
0.0134333
24.9135
0.0992828
0.0186619
24.8647
0.132017
0.0265222
24.7922
0.173871
0.0371575
6.17333
0.222793
0.0523565
6.16655
6.17378
6.16684
-0.00773665
6.15841
0.0479438
0.0117752
-0.0109419
6.13293
0.016708
-6.16121
0.0191997
0.0109635
0.0194695
0.0106934
-0.0377996
-0.0150631
-6.08076
6.04815
0.023159
-0.00316956
0.00252587
-0.00310297
0.0023982
0.0258216
-0.0201273
-6.04707
6.06087
0.0309409
0.0516172
-0.041226
0.0512115
-0.0410836
-0.0451345
-0.0256819
-6.10098
6.1414
0.0390341
-0.0511274
-0.129506
-0.0518507
-0.129031
0.30776
-0.0289551
-6.17103
6.18124
0.0435822
-0.0497302
-0.0536773
-0.0506353
-0.0528607
0.182058
-0.0308244
-6.19369
6.20737
0.0462513
-0.0508327
-0.0507565
-0.0516963
-0.0498974
0.174141
-0.0319951
-6.22108
6.23317
0.048218
-0.0494741
-0.0500274
-0.0501375
-0.0493366
0.170788
-0.0325554
-6.243
6.25029
0.04944
-0.0467697
-0.0473221
-0.0474285
-0.0468682
0.164318
-0.0326538
-6.25674
6.26097
0.0500399
-0.0445967
-0.0449799
-0.0447892
-0.0447555
0.15754
-0.0325098
-6.26498
6.26706
0.0502433
-0.0428023
-0.0429503
-0.0425547
-0.0429258
0.151421
-6.26949
-0.0324122
6.27149
-0.165506
0.0504626
25.0417
-0.669562
0.274937
-6.27257
-6.26492
-6.2722
-6.26494
25.0167
-0.663653
0.272728
24.9901
-0.659229
0.271486
24.9634
-0.655198
0.269954
24.9382
-0.652365
0.268698
24.9139
-0.649586
0.267739
24.8908
-0.64629
0.266171
24.8688
-0.642619
0.26465
24.8472
-0.638577
0.262871
24.8263
-0.634424
0.260822
24.806
-0.630386
0.258295
24.7861
-0.62656
0.256074
24.7663
-0.622986
0.25336
24.7471
-0.620188
0.250475
24.7282
-0.617847
0.24738
24.7103
-0.616246
0.243936
24.6936
-0.615545
0.239997
24.6786
-0.616269
0.23544
-0.61919
0.229874
25.0019
0.00410357
0.00156771
24.9996
0.0230011
0.00327043
24.9918
0.0429025
0.00526338
24.9796
0.0625217
0.00775986
24.962
0.0862425
0.0110272
24.9359
0.1182
0.0149323
24.8937
0.163532
0.021507
24.8226
0.229818
0.0299452
6.17281
0.333643
0.0422068
6.17188
6.17312
6.17199
-0.00604482
-0.062746
6.14758
0.0845536
0.00942365
-0.00195944
-0.0186622
-1.52824
1.52307
0.0231838
0.00260529
-0.00286234
-0.0173165
-1.50507
1.49268
0.0288731
0.00368638
-0.004327
-1.47036
0.0532812
1.48039
-0.0644855
0.00552708
-0.00635931
-1.52971
0.153761
1.54113
-0.166746
0.00795548
-0.00750639
-1.53713
0.0597775
-0.0633198
1.5389
0.00928935
-1.54794
-0.00813424
0.0596351
-0.064089
0.00983841
1.55069
-0.0085063
0.0573994
-1.55642
1.5579
-0.0602763
0.00989971
-0.00859248
0.0530239
-1.56095
1.5615
-0.0547983
0.00981533
-0.00835485
0.049856
-1.56213
1.56217
-0.051165
0.00962007
-0.0078746
0.0472312
-1.56144
1.56098
-0.0482539
0.00935106
-1.55431
-0.0250135
0.179554
6.15523
-0.170392
0.0424406
-1.53859
-1.5533
-1.53563
23.8012
-0.771825
0.128272
-6.09456
-5.78922
-6.09887
-5.79404
23.8139
-0.75434
0.128041
23.8265
-0.748725
0.127264
23.8401
-0.74315
0.125565
23.8538
-0.737793
0.123956
23.8673
-0.732202
0.122657
23.881
-0.726276
0.120761
23.8947
-0.720092
0.118864
23.9084
-0.713834
0.116705
23.922
-0.70761
0.114274
23.9357
-0.701551
0.111359
23.949
-0.695876
0.108688
23.9622
-0.690604
0.105547
23.9748
-0.685843
0.102196
23.9872
-0.681648
0.0985589
23.9993
-0.678042
0.0945362
24.011
-0.675034
0.0899162
24.0223
-0.672622
0.0842809
-0.670731
0.0766834
25.009
0.00280618
0.00125905
25.0097
0.0210423
0.00254717
25.0063
0.0443441
0.00403028
24.9995
0.0664572
0.0058351
24.9895
0.092256
0.00811296
24.9759
0.126883
0.0105628
24.9563
0.175665
0.0149071
24.9258
0.250323
0.019866
6.21381
0.373985
0.0265272
6.22181
6.21384
6.222
-0.00356396
-0.102425
6.19834
0.115822
0.00562217
-0.00105517
-0.038187
-1.5421
1.53594
0.0439807
0.00141976
-0.00114479
-0.0800597
-1.50599
1.48752
0.0980386
0.00163611
-0.000140349
0.00460328
-0.0748734
0.0751213
-0.00486687
0.00015697
0.0043972
-0.244417
0.0207618
-0.0312821
-0.00270014
0.253239
-1.19139
0.010001
0.0640597
-0.0796305
-0.00420578
1.20117
0.00900978
0.0499509
-1.22066
1.22425
-0.0566995
-0.00584728
0.00818335
0.0464499
-1.24344
1.25225
-0.0560949
-0.00734546
0.00746783
0.0431574
-1.27934
1.28898
-0.0521046
-0.00816572
0.00654056
0.0427996
-1.31652
1.32682
-0.0512826
-0.00835751
-1.38082
0.0195143
0.200386
5.81379
-0.221975
-0.0371658
-1.491
-1.40567
-1.49706
24.1129
-0.68941
-0.225166
-5.87178
-6.17049
-5.84336
-6.1742
24.1551
-0.663266
-0.222744
24.1907
-0.653959
-0.219745
24.2215
-0.646718
-0.216906
24.2471
-0.640193
-0.213481
24.2683
-0.634695
-0.20933
24.286
-0.630219
-0.204632
24.3011
-0.626435
-0.199621
24.3144
-0.62324
-0.194532
24.3264
-0.620475
-0.18957
24.338
-0.618229
-0.184929
24.3498
-0.616531
-0.180699
24.3622
-0.615199
-0.177035
24.3751
-0.613839
-0.173921
24.3886
-0.612541
-0.171418
24.4027
-0.611217
-0.169596
24.4171
-0.609759
-0.168664
24.4317
-0.607621
-0.168907
-0.603645
-0.17088
25.0084
-0.00238752
0.000891002
25.0156
0.0130402
0.00178138
25.0223
0.0362755
0.00272899
25.0262
0.0607076
0.00378735
25.0255
0.0905147
0.00498253
25.0299
0.119751
0.00604914
25.0416
0.160132
0.00762942
25.0695
0.218064
0.00864425
6.27577
0.306405
0.00876847
6.28813
6.27711
6.29145
-0.000844464
-0.107524
6.28312
0.0996771
0.0013629
-6.35836e-05
-0.043444
-1.57771
1.57935
0.0417737
9.49156e-05
0.000668145
-0.0801124
-1.5995
1.61587
0.0637481
-0.00067247
0.00305804
-0.0264656
-1.71114
1.74922
0.058742
-0.00181173
-0.0219993
-0.0273736
-0.0222558
0.00470181
0.11158
-1.7102
1.6789
-0.0796484
-0.00536608
0.10623
-1.60872
0.00589974
1.59773
-0.0939057
-0.00723513
0.00659419
0.0753843
-1.58304
-0.0080938
1.581
-0.0718228
0.00702228
0.0553511
-1.57796
1.57651
-0.0523758
-0.00854199
0.00717279
0.057164
-1.57573
1.57429
-0.0541347
-0.00876018
0.00718662
0.0513852
-1.57341
1.57273
-0.0490386
-0.00885491
0.00709784
0.0477298
-1.56986
1.57014
-0.0462723
-0.00883669
-1.57019
0.0287133
0.182794
6.27527
-0.159382
-0.0452959
-1.57025
-1.57052
-1.57112
25.0896
-0.529135
-0.261244
-6.27775
-6.27025
-6.28401
-6.27607
25.0881
-0.51974
-0.260445
25.0835
-0.507455
-0.258814
25.0785
-0.49982
-0.257658
25.0737
-0.493601
-0.256651
25.0697
-0.489496
-0.255643
25.0664
-0.486261
-0.254694
25.0636
-0.483901
-0.253861
25.0616
-0.482196
-0.253175
25.0599
-0.480731
-0.252659
25.0588
-0.479827
-0.252347
25.0585
-0.47944
-0.25248
25.0583
-0.479117
-0.252374
25.0581
-0.478233
-0.252738
25.0586
-0.478032
-0.253354
25.0593
-0.477149
-0.254344
25.0605
-0.475845
-0.255817
25.0619
-0.473496
-0.257888
-0.470538
-0.260412
25.0071
-0.00714963
0.000542326
25.0174
0.00225084
0.00104016
25.0317
0.0212517
0.00148673
25.0402
0.0513001
0.00183984
25.0579
0.0718802
0.00200854
25.0814
0.0954919
0.00180577
25.1191
0.122098
0.00087042
25.184
0.153861
-0.00149716
6.32948
0.193776
-0.00654169
6.31881
6.33379
6.31766
-0.0846505
0.00144067
6.34769
0.0672032
-0.00219455
-0.0324496
0.0035117
6.42085
0.0854174
-0.00501927
-0.0303814
-0.03257
-0.0293594
-6.38003
-0.0286079
0.00737232
6.49081
0.078569
-0.0104683
-0.0280779
-0.0274846
-0.030179
-6.45193
-0.00870741
0.0130099
-6.53852
6.49764
-0.0604793
-0.0191476
0.0633644
-0.00988131
0.0627196
0.0356927
0.0197208
-6.4906
6.47258
-0.146286
-0.0292114
0.0520932
0.0348668
0.0511768
0.0587987
-6.4494
0.0249705
6.4063
-0.185157
-0.0368879
0.0578698
0.0622617
0.0613194
0.0566585
0.0280962
-6.36654
6.33893
-0.179627
-0.0416933
0.0547622
0.0556248
0.0538056
0.0465136
0.0301633
-6.32511
6.31791
-0.161432
-0.0449348
0.0458689
0.0457276
0.0452225
0.0452055
0.0314081
-6.31351
6.30544
-0.156859
-0.0469506
0.0456551
0.0445406
0.0449933
0.04428
0.0319355
-6.29668
6.28771
-0.145955
-0.0479867
0.0417329
0.0437319
0.0411928
0.0391385
0.0320775
-6.28035
6.27267
-0.128332
-0.0483788
0.036123
0.0396801
0.0373709
0.139067
-6.27137
0.032178
6.27187
-0.123283
-0.048462
25.0735
-0.386245
-0.264673
-6.27049
-6.26842
-6.27105
-6.26814
25.0678
-0.376475
-0.262483
25.0645
-0.367507
-0.26045
25.0619
-0.360837
-0.259068
25.0603
-0.356273
-0.257814
25.0586
-0.35283
-0.25658
25.0576
-0.350898
-0.255401
25.057
-0.349745
-0.254317
25.0562
-0.348673
-0.253362
25.0561
-0.348503
-0.252566
25.0558
-0.348085
-0.251928
25.0559
-0.348267