/*--------------------------------*- C++ -*----------------------------------*\
| =========                 |                                                 |
| \\      /  F ield         | OpenFOAM: The Open Source CFD Toolbox           |
|  \\    /   O peration     | Version:  2306                                  |
|   \\  /    A nd           | Website:  www.openfoam.com                      |
|    \\/     M anipulation  |                                                 |
\*---------------------------------------------------------------------------*/
FoamFile
{
    version     2.0;
    format      ascii;
    arch        "LSB;label=32;scalar=64";
    class       volVectorField;
    location    "1.65";
    object      U;
}
// * * * * * * * * * * * * * * * * * * * * * * * * * * * * * * * * * * * * * //

dimensions      [0 1 -1 0 0 0 0];

internalField   nonuniform List<vector> 
111542
(
(99.9932 0.00567861 0.00260522)
(99.9706 0.0114797 0.00554075)
(99.9288 0.0173721 0.00886712)
(99.8666 0.0235122 0.013004)
(99.7828 0.0296535 0.0183023)
(99.6754 0.0350299 0.0251888)
(99.5437 0.0377887 0.0339218)
(99.39 0.0349639 0.0450062)
(99.2237 0.0219114 0.0589767)
(99.0648 -0.0078008 0.0759277)
(98.9463 -0.0598799 0.0954731)
(98.9085 -0.13205 0.116872)
(98.9771 -0.20622 0.139326)
(99.1426 -0.262718 0.160811)
(99.36 -0.290804 0.179606)
(99.5805 -0.299984 0.195075)
(99.7775 -0.299123 0.206931)
(99.9437 -0.292862 0.215597)
(100.08 -0.28411 0.221576)
(100.19 -0.274855 0.225562)
(100.278 -0.266401 0.227892)
(100.346 -0.259028 0.229171)
(100.399 -0.252618 0.230041)
(100.44 -0.247667 0.23059)
(100.472 -0.244096 0.231064)
(100.497 -0.241524 0.231793)
(100.517 -0.240096 0.232622)
(100.532 -0.239677 0.233611)
(100.543 -0.239926 0.234922)
(100.55 -0.240666 0.236528)
(100.555 -0.241798 0.238336)
(100.558 -0.243295 0.240204)
(100.559 -0.244936 0.242191)
(100.559 -0.246642 0.244216)
(100.559 -0.248388 0.246154)
(100.56 -0.250175 0.247873)
(100.562 -0.252046 0.249206)
(100.566 -0.253856 0.25021)
(100.573 -0.255622 0.250847)
(100.586 -0.257559 0.251115)
(99.9935 0.0169079 0.00255868)
(99.9713 0.0341217 0.00537268)
(99.9301 0.0520056 0.00867261)
(99.8684 0.0709466 0.0127735)
(99.7839 0.0903809 0.0180201)
(99.6733 0.108259 0.0248316)
(99.5335 0.119695 0.0336569)
(99.3641 0.115896 0.0450333)
(99.1711 0.0822405 0.0594775)
(98.9734 -0.00236709 0.077226)
(98.8119 -0.155372 0.0981631)
(98.7526 -0.370423 0.120638)
(98.8394 -0.595304 0.144947)
(99.0502 -0.758098 0.168404)
(99.3123 -0.839876 0.188611)
(99.5611 -0.870056 0.204664)
(99.773 -0.870596 0.216682)
(99.9465 -0.85471 0.225251)
(100.086 -0.831512 0.231057)
(100.195 -0.806174 0.234767)
(100.28 -0.781898 0.236943)
(100.346 -0.761082 0.238243)
(100.396 -0.744106 0.239104)
(100.434 -0.730878 0.239721)
(100.464 -0.719729 0.240287)
(100.487 -0.709757 0.240993)
(100.506 -0.70157 0.241912)
(100.519 -0.695444 0.243104)
(100.529 -0.69114 0.24461)
(100.536 -0.688491 0.246406)
(100.54 -0.687406 0.248434)
(100.542 -0.687815 0.250615)
(100.543 -0.689389 0.252891)
(100.543 -0.691935 0.255169)
(100.542 -0.695327 0.257328)
(100.542 -0.699462 0.259252)
(100.544 -0.704267 0.260824)
(100.547 -0.709439 0.261989)
(100.553 -0.714841 0.262712)
(100.564 -0.720437 0.263071)
(99.9939 0.0276964 0.00243695)
(99.9728 0.055994 0.00510823)
(99.9332 0.0861519 0.00826844)
(99.873 0.119042 0.012215)
(99.7885 0.154433 0.0173046)
(99.6734 0.190044 0.0239988)
(99.5203 0.219615 0.0328596)
(99.3218 0.229568 0.0445583)
(99.0751 0.193301 0.0598264)
(98.7973 0.0623571 0.079291)
(98.5477 -0.272381 0.103338)
(98.4374 -0.735194 0.131367)
(98.5614 -1.15476 0.158043)
(98.8659 -1.39622 0.183786)
(99.2092 -1.49595 0.205332)
(99.5069 -1.52601 0.221703)
(99.7469 -1.51137 0.23339)
(99.9345 -1.47472 0.24122)
(100.078 -1.43044 0.246069)
(100.188 -1.38474 0.248711)
(100.269 -1.34267 0.249689)
(100.33 -1.30348 0.249982)
(100.374 -1.27742 0.250212)
(100.41 -1.2632 0.250534)
(100.439 -1.25361 0.250938)
(100.462 -1.24551 0.251458)
(100.479 -1.23886 0.252196)
(100.49 -1.23392 0.253265)
(100.497 -1.23056 0.254745)
(100.501 -1.22869 0.25667)
(100.502 -1.22828 0.259024)
(100.5 -1.2293 0.261738)
(100.497 -1.23162 0.264707)
(100.492 -1.23509 0.267795)
(100.487 -1.23959 0.270831)
(100.482 -1.24499 0.273642)
(100.478 -1.25115 0.276052)
(100.476 -1.25786 0.277924)
(100.476 -1.2648 0.279199)
(100.481 -1.2714 0.280027)
(99.9945 0.0375471 0.0022464)
(99.9756 0.0762874 0.00470485)
(99.9396 0.118569 0.00761939)
(99.8837 0.166441 0.0112817)
(99.8025 0.221128 0.0160523)
(99.6865 0.282153 0.0224152)
(99.5214 0.345347 0.0310138)
(99.2866 0.398232 0.0426723)
(98.9534 0.411242 0.0584132)
(98.4577 0.21067 0.0794664)
(98.2017 0.0312882 0.0860904)
(97.8572 -0.62381 0.101701)
(97.9221 -1.42615 0.116155)
(98.3977 -1.94354 0.129319)
(98.8954 -2.09991 0.142467)
(99.2857 -2.13707 0.151309)
(99.5986 -2.10304 0.156544)
(99.8328 -2.0326 0.159033)
(100.004 -1.95416 0.159685)
(100.131 -1.88198 0.159396)
(100.296 -1.93884 0.257259)
(100.342 -1.86266 0.256797)
(100.362 -1.80448 0.256171)
(100.377 -1.76538 0.256347)
(100.393 -1.73709 0.257467)
(100.404 -1.71689 0.259265)
(100.408 -1.7036 0.261546)
(100.405 -1.69587 0.264236)
(100.397 -1.69244 0.267313)
(100.384 -1.69252 0.270742)
(100.366 -1.69553 0.274462)
(100.343 -1.701 0.278374)
(100.318 -1.70851 0.282339)
(100.289 -1.71768 0.286185)
(100.259 -1.72814 0.289717)
(100.228 -1.73961 0.292734)
(100.197 -1.75182 0.295029)
(100.167 -1.76455 0.296437)
(100.141 -1.77742 0.296886)
(100.112 -1.789 0.296606)
(99.9956 0.0457064 0.00198677)
(99.9803 0.0933719 0.00415419)
(99.9507 0.146661 0.00671461)
(99.9038 0.209367 0.00993265)
(99.833 0.285309 0.0141421)
(99.7269 0.378233 0.0197909)
(99.5661 0.490977 0.0274991)
(99.3181 0.622283 0.0380808)
(98.8781 0.758968 0.0525902)
(98.5358 0.765823 0.0578566)
(97.7271 0.377588 0.071073)
(96.9251 -0.685697 0.0882862)
(97.0158 -2.33674 0.103554)
(98.1312 -2.94745 0.116713)
(98.8454 -2.99325 0.132574)
(99.3129 -2.96187 0.139754)
(99.6759 -2.84536 0.140587)
(99.9173 -2.7047 0.137561)
(100.075 -2.57121 0.13294)
(100.175 -2.46078 0.128783)
(100.245 -2.39222 0.123598)
(100.179 -2.52239 0.221588)
(100.075 -2.49743 0.225858)
(99.9766 -2.45843 0.229202)
(99.8882 -2.41624 0.232459)
(99.8013 -2.37986 0.235771)
(99.7131 -2.35069 0.239136)
(99.6241 -2.32756 0.242581)
(99.5341 -2.30955 0.246137)
(99.4432 -2.29612 0.249783)
(99.3515 -2.28684 0.253438)
(99.2595 -2.28132 0.256959)
(99.1677 -2.27915 0.260161)
(99.077 -2.27995 0.262826)
(98.9884 -2.28329 0.264733)
(98.9028 -2.28876 0.265662)
(98.8214 -2.29604 0.265396)
(98.7457 -2.30504 0.263755)
(98.6782 -2.31626 0.26065)
(98.6128 -2.33163 0.256262)
(99.9971 0.0512373 0.00166246)
(99.9869 0.105203 0.00346266)
(99.9671 0.166817 0.00556329)
(99.9348 0.241724 0.00817309)
(99.8845 0.336832 0.0115508)
(99.8058 0.461512 0.0160322)
(99.6795 0.629473 0.0220652)
(99.4692 0.861093 0.0301946)
(99.0513 1.18799 0.0410405)
(98.6439 1.34952 0.0452514)
(97.6934 1.49136 0.0431751)
(95.5898 0.726449 0.0396161)
(94.3832 -3.41366 0.0553409)
(98.1665 -4.71666 0.0489394)
(98.6716 -3.95522 0.0568047)
(99.2623 -3.89528 0.045646)
(99.6707 -3.65476 0.0418974)
(99.8556 -3.3723 0.0367882)
(99.9122 -3.11741 0.0259571)
(99.8821 -2.89406 0.0116013)
(98.9045 -2.60938 -0.0194187)
(95.1805 -2.37375 0.0446535)
(95.2764 -2.41066 0.0745426)
(95.3839 -2.41859 0.101831)
(95.4703 -2.41739 0.124164)
(95.5374 -2.41852 0.140592)
(95.5923 -2.42353 0.150987)
(95.6383 -2.43138 0.155744)
(95.6774 -2.44127 0.155586)
(95.7114 -2.45276 0.151383)
(95.7422 -2.46559 0.144009)
(95.7719 -2.47954 0.134276)
(95.8019 -2.49446 0.122897)
(95.8332 -2.51015 0.110491)
(95.8666 -2.52632 0.0975711)
(95.9024 -2.54262 0.0845329)
(95.9407 -2.55871 0.0716306)
(95.9815 -2.57445 0.0589707)
(96.0236 -2.59039 0.0465605)
(96.0734 -2.60906 0.03467)
(99.999 0.0531936 0.00132523)
(99.9953 0.109667 0.00269348)
(99.988 0.175124 0.0042426)
(99.9755 0.25647 0.00611165)
(99.9553 0.362801 0.00843993)
(99.9226 0.507775 0.0113852)
(99.8691 0.713508 0.0150993)
(99.7805 1.01865 0.0196323)
(99.6093 1.49668 0.0247193)
(99.3429 1.89654 0.0266713)
(98.6284 2.83293 0.0233612)
(95.5047 5.84154 0.0160914)
(77.1029 -4.25032 0.0510337)
(102.691 -10.2911 0.0231702)
(48.8345 -1.7252 -1.5064)
(74.2076 -3.98618 -0.26586)
(78.127 -3.29011 -0.113098)
(80.5668 -2.92285 0.00226001)
(82.2639 -2.64117 0.0824291)
(83.8526 -2.49153 0.114689)
(91.5439 -3.31226 -0.0147727)
(96.1411 -3.2561 -0.143334)
(96.2271 -3.11313 -0.155815)
(96.3324 -3.00968 -0.167839)
(96.4227 -2.93384 -0.179093)
(96.5062 -2.87614 -0.189345)
(96.5917 -2.83178 -0.198412)
(96.6808 -2.79777 -0.206338)
(96.7725 -2.77182 -0.213275)
(96.8655 -2.75216 -0.219374)
(96.959 -2.73739 -0.224744)
(97.0524 -2.72644 -0.229453)
(97.1452 -2.71842 -0.233529)
(97.2368 -2.71255 -0.236976)
(97.3266 -2.70812 -0.239793)
(97.4139 -2.70445 -0.242005)
(97.4983 -2.70086 -0.243712)
(97.5792 -2.69666 -0.245088)
(97.6558 -2.69079 -0.246378)
(97.7429 -2.68096 -0.247694)
(100.001 0.0512327 0.00100234)
(100.004 0.105593 0.00191746)
(100.011 0.169086 0.00288174)
(100.02 0.248758 0.00395039)
(100.034 0.353885 0.00513276)
(100.056 0.498184 0.00638301)
(100.09 0.703148 0.00753185)
(100.153 1.00458 0.008124)
(100.298 1.46459 0.00710878)
(100.348 1.87448 0.0065366)
(100.627 2.85725 0.00188489)
(102.464 5.37271 -0.00869863)
(111.185 3.83249 -0.0331406)
(109.103 -6.80414 0.0217541)
(102.778 -6.83511 -0.0305184)
(101.109 -5.0048 -0.035529)
(100.662 -3.99114 -0.0366299)
(100.491 -3.42922 -0.0370745)
(100.406 -3.09394 -0.0353732)
(100.338 -2.89099 -0.0322294)
(100.246 -2.66733 -0.0929104)
(100.282 -2.27123 -0.223875)
(100.268 -2.15437 -0.224487)
(100.259 -2.0842 -0.224132)
(100.252 -2.04355 -0.22409)
(100.245 -2.01863 -0.224613)
(100.238 -2.00378 -0.225615)
(100.232 -1.99651 -0.227107)
(100.227 -1.9949 -0.229158)
(100.222 -1.99731 -0.231818)
(100.218 -2.00246 -0.235098)
(100.214 -2.00939 -0.238968)
(100.21 -2.0173 -0.243356)
(100.208 -2.02551 -0.248149)
(100.205 -2.03337 -0.253213)
(100.204 -2.04029 -0.258415)
(100.204 -2.04566 -0.263659)
(100.206 -2.04878 -0.268893)
(100.21 -2.04852 -0.274088)
(100.221 -2.04257 -0.279071)
(100.003 0.0449188 0.000529485)
(100.013 0.0926035 0.0010564)
(100.032 0.148342 0.00150983)
(100.062 0.218183 0.00183692)
(100.107 0.309723 0.00194648)
(100.175 0.433198 0.00163358)
(100.279 0.602824 0.000481622)
(100.446 0.838053 -0.00228406)
(100.764 1.16318 -0.00808777)
(100.989 1.40186 -0.0104618)
(101.844 1.85548 -0.0188344)
(103.462 1.75299 -0.0345494)
(105.248 -0.26383 -0.0537239)
(104.79 -2.85598 -0.0342637)
(102.983 -3.57775 -0.0531166)
(101.759 -3.35739 -0.0686493)
(101.128 -3.00162 -0.0779281)
(100.79 -2.69989 -0.0830734)
(100.596 -2.47167 -0.0859623)
(100.468 -2.29894 -0.0878785)
(100.377 -2.15741 -0.0891206)
(100.287 -1.86722 -0.244924)
(100.257 -1.82388 -0.242517)
(100.239 -1.79178 -0.239953)
(100.229 -1.76963 -0.238099)
(100.223 -1.75377 -0.237049)
(100.219 -1.74206 -0.236681)
(100.215 -1.73368 -0.236902)
(100.213 -1.728 -0.237644)
(100.21 -1.72434 -0.238831)
(100.208 -1.72206 -0.240377)
(100.207 -1.72061 -0.242194)
(100.206 -1.71953 -0.244188)
(100.205 -1.71838 -0.246268)
(100.205 -1.71678 -0.248362)
(100.205 -1.71435 -0.250426)
(100.207 -1.71075 -0.252456)
(100.211 -1.70563 -0.254495)
(100.218 -1.69874 -0.256637)
(100.236 -1.6903 -0.259043)
(100.004 0.0347514 0.000272175)
(100.02 0.0717997 0.000456333)
(100.049 0.114952 0.000441315)
(100.095 0.168589 0.000128687)
(100.164 0.237806 -0.000643701)
(100.263 0.328489 -0.00219499)
(100.41 0.446929 -0.0050693)
(100.629 0.597548 -0.0101564)
(100.963 0.776433 -0.0188896)
(101.449 0.859131 -0.0330872)
(102.089 0.759154 -0.0545208)
(102.765 0.227465 -0.0841613)
(103.123 -0.76468 -0.117782)
(102.872 -1.59965 -0.148547)
(102.226 -1.90851 -0.179338)
(101.592 -1.91424 -0.204019)
(101.144 -1.82733 -0.220567)
(100.855 -1.72025 -0.230739)
(100.664 -1.61723 -0.236645)
(100.531 -1.52448 -0.239699)
(100.44 -1.44259 -0.240796)
(100.381 -1.36863 -0.240437)
(100.341 -1.30841 -0.23937)
(100.314 -1.25948 -0.238221)
(100.294 -1.22128 -0.237277)
(100.28 -1.19231 -0.236653)
(100.268 -1.17066 -0.236423)
(100.259 -1.15486 -0.23663)
(100.25 -1.14375 -0.237278)
(100.243 -1.13633 -0.238336)
(100.236 -1.13168 -0.239751)
(100.231 -1.12904 -0.241453)
(100.226 -1.12773 -0.243367)
(100.222 -1.12716 -0.245413)
(100.22 -1.12677 -0.247528)
(100.219 -1.12613 -0.249666)
(100.219 -1.12485 -0.251808)
(100.222 -1.12264 -0.253968)
(100.227 -1.11938 -0.256203)
(100.238 -1.1153 -0.258609)
(100.005 0.0220147 4.94512e-05)
(100.025 0.045352 -4.53286e-05)
(100.061 0.0725127 -0.000400689)
(100.118 0.10587 -0.00114979)
(100.2 0.148347 -0.00252852)
(100.318 0.202383 -0.0048875)
(100.482 0.269451 -0.00879566)
(100.71 0.347027 -0.0150545)
(101.02 0.422098 -0.0247724)
(101.42 0.455201 -0.0392254)
(101.884 0.389971 -0.0596032)
(102.313 0.151583 -0.086461)
(102.532 -0.270475 -0.117448)
(102.414 -0.701556 -0.14806)
(102.022 -0.947135 -0.176159)
(101.562 -1.00734 -0.198751)
(101.183 -0.978533 -0.21505)
(100.911 -0.923606 -0.225732)
(100.718 -0.866028 -0.2323)
(100.576 -0.81246 -0.235961)
(100.473 -0.765715 -0.237584)
(100.398 -0.728908 -0.237825)
(100.344 -0.702475 -0.237315)
(100.304 -0.68445 -0.236468)
(100.275 -0.67295 -0.235591)
(100.254 -0.666537 -0.234894)
(100.238 -0.663854 -0.234505)
(100.226 -0.663789 -0.234478)
(100.216 -0.665538 -0.234806)
(100.209 -0.668496 -0.23545)
(100.203 -0.672149 -0.236349)
(100.198 -0.676087 -0.237431)
(100.195 -0.679972 -0.238616)
(100.193 -0.683573 -0.239834)
(100.192 -0.686412 -0.241059)
(100.193 -0.688468 -0.242235)
(100.195 -0.689647 -0.243346)
(100.2 -0.689865 -0.24443)
(100.208 -0.689128 -0.245579)
(100.225 -0.687442 -0.247016)
(100.006 0.00753433 -8.55877e-05)
(100.027 0.0154734 -0.000291496)
(100.067 0.024745 -0.000855954)
(100.129 0.0359969 -0.0017758)
(100.218 0.050274 -0.00347672)
(100.342 0.0681364 -0.00624206)
(100.513 0.0895893 -0.0106731)
(100.74 0.113138 -0.01745)
(101.031 0.13363 -0.0276661)
(101.379 0.138368 -0.0420795)
(101.751 0.10734 -0.0614414)
(102.071 0.0199057 -0.0858093)
(102.233 -0.120193 -0.113756)
(102.163 -0.265391 -0.142418)
(101.887 -0.357919 -0.168309)
(101.524 -0.386937 -0.189681)
(101.189 -0.381248 -0.205764)
(100.928 -0.365319 -0.216604)
(100.734 -0.34827 -0.223402)
(100.589 -0.332358 -0.227256)
(100.482 -0.318369 -0.229078)
(100.402 -0.306876 -0.229552)
(100.345 -0.297472 -0.229228)
(100.304 -0.289523 -0.228472)
(100.274 -0.282412 -0.227724)
(100.252 -0.275903 -0.227193)
(100.236 -0.269866 -0.226974)
(100.223 -0.264218 -0.227107)
(100.214 -0.258936 -0.227589)
(100.206 -0.254023 -0.228385)
(100.199 -0.249474 -0.229434)
(100.194 -0.245274 -0.230659)
(100.19 -0.241406 -0.231971)
(100.187 -0.237871 -0.23325)
(100.186 -0.234413 -0.234641)
(100.186 -0.231101 -0.235977)
(100.188 -0.227923 -0.237215)
(100.192 -0.224859 -0.238388)
(100.199 -0.222012 -0.239591)
(100.211 -0.219886 -0.24106)
(99.9936 0.00563246 0.0076049)
(99.9717 0.0113126 0.0160236)
(99.9312 0.0171799 0.0257863)
(99.8713 0.0232867 0.037908)
(99.7906 0.0293787 0.0533848)
(99.6871 0.0346855 0.0733953)
(99.5601 0.03754 0.0989943)
(99.412 0.0350083 0.131609)
(99.2518 0.0224313 0.172584)
(99.0985 -0.00650073 0.222328)
(98.9843 -0.0572739 0.280202)
(98.9489 -0.128317 0.34392)
(99.0171 -0.200287 0.40978)
(99.1791 -0.254449 0.472394)
(99.3919 -0.281013 0.526986)
(99.6083 -0.289496 0.571656)
(99.8022 -0.28841 0.606026)
(99.9664 -0.28221 0.631229)
(100.102 -0.273619 0.648765)
(100.211 -0.264673 0.660411)
(100.297 -0.256323 0.667489)
(100.363 -0.248895 0.671616)
(100.414 -0.242469 0.674288)
(100.452 -0.237429 0.676061)
(100.481 -0.233739 0.677458)
(100.503 -0.231167 0.678999)
(100.519 -0.229624 0.680594)
(100.531 -0.228976 0.682386)
(100.539 -0.229014 0.684594)
(100.544 -0.22955 0.687157)
(100.547 -0.230452 0.689916)
(100.548 -0.231626 0.692666)
(100.549 -0.232979 0.69545)
(100.549 -0.234447 0.69814)
(100.55 -0.235987 0.700538)
(100.551 -0.237591 0.70244)
(100.554 -0.239247 0.703599)
(100.56 -0.240922 0.704022)
(100.568 -0.24263 0.703568)
(100.583 -0.244496 0.702091)
(99.9938 0.0167407 0.00744575)
(99.9724 0.0336923 0.0156141)
(99.9325 0.0514133 0.0252322)
(99.873 0.0701694 0.0372007)
(99.7917 0.0894037 0.0525291)
(99.685 0.107111 0.0724481)
(99.5503 0.118698 0.0983429)
(99.3868 0.115538 0.131832)
(99.2005 0.0831905 0.174474)
(99.0093 0.00106326 0.227215)
(98.8525 -0.147739 0.289809)
(98.7964 -0.355909 0.359679)
(98.8833 -0.575382 0.432568)
(99.0894 -0.734742 0.50133)
(99.3451 -0.813563 0.559671)
(99.588 -0.842644 0.605864)
(99.7955 -0.843216 0.6405)
(99.9661 -0.828075 0.665283)
(100.103 -0.805965 0.682159)
(100.211 -0.781927 0.692971)
(100.294 -0.758891 0.699342)
(100.358 -0.738984 0.703217)
(100.406 -0.722607 0.705821)
(100.442 -0.709593 0.707653)
(100.469 -0.698536 0.7091)
(100.49 -0.688815 0.710577)
(100.506 -0.680781 0.712308)
(100.518 -0.674662 0.714413)
(100.526 -0.670285 0.716905)
(100.531 -0.667423 0.719691)
(100.534 -0.665912 0.722635)
(100.536 -0.665608 0.725606)
(100.536 -0.666332 0.728522)
(100.537 -0.667962 0.731262)
(100.537 -0.670409 0.733668)
(100.537 -0.673593 0.735569)
(100.539 -0.677461 0.736789)
(100.543 -0.681896 0.737194)
(100.549 -0.686756 0.736651)
(100.562 -0.691868 0.735101)
(99.9941 0.0273854 0.007089)
(99.9738 0.0553308 0.0148593)
(99.9356 0.0851088 0.0240651)
(99.8776 0.117569 0.0355921)
(99.7961 0.152498 0.0504997)
(99.6852 0.187698 0.0701514)
(99.5375 0.217096 0.0962467)
(99.3457 0.227405 0.13085)
(99.1071 0.192501 0.176224)
(98.8383 0.0647384 0.23435)
(98.5972 -0.262468 0.305941)
(98.4901 -0.714699 0.388315)
(98.6104 -1.12376 0.472635)
(98.9071 -1.35883 0.550724)
(99.2411 -1.45559 0.614175)
(99.5311 -1.48544 0.662173)
(99.7656 -1.47191 0.696697)
(99.9493 -1.43689 0.7202)
(100.09 -1.39425 0.735103)
(100.196 -1.35002 0.74349)
(100.275 -1.3091 0.746774)
(100.334 -1.27152 0.748064)
(100.377 -1.24742 0.749312)
(100.411 -1.2346 0.750759)
(100.439 -1.22573 0.752229)
(100.46 -1.21793 0.753806)
(100.476 -1.21132 0.755661)
(100.487 -1.20615 0.75783)
(100.494 -1.2023 0.760229)
(100.498 -1.19965 0.762737)
(100.499 -1.19815 0.765235)
(100.498 -1.1978 0.767632)
(100.495 -1.19857 0.769858)
(100.491 -1.2004 0.771832)
(100.487 -1.20328 0.773447)
(100.482 -1.20718 0.774555)
(100.478 -1.21209 0.774974)
(100.476 -1.21789 0.774515)
(100.476 -1.22435 0.77306)
(100.482 -1.23071 0.770769)
(99.9948 0.0370994 0.00653313)
(99.9765 0.0753404 0.0136904)
(99.9419 0.117029 0.022194)
(99.8881 0.164186 0.0329141)
(99.8098 0.218012 0.0469324)
(99.6979 0.278045 0.0657002)
(99.5384 0.340174 0.0911883)
(99.3111 0.392085 0.125982)
(98.9877 0.404529 0.173361)
(98.5048 0.206786 0.23725)
(98.25 0.0243361 0.269608)
(97.9127 -0.633244 0.345438)
(97.9794 -1.42952 0.427706)
(98.4495 -1.94673 0.506209)
(98.9346 -2.10249 0.569206)
(99.3142 -2.14284 0.614832)
(99.6196 -2.11326 0.646339)
(99.8487 -2.04702 0.666615)
(100.016 -1.9718 0.67823)
(100.14 -1.90135 0.683659)
(100.288 -1.9315 0.800628)
(100.331 -1.8564 0.796037)
(100.35 -1.80371 0.791549)
(100.366 -1.77198 0.78952)
(100.383 -1.75076 0.790169)
(100.394 -1.73625 0.792905)
(100.398 -1.72676 0.797025)
(100.396 -1.72069 0.801863)
(100.389 -1.7168 0.806841)
(100.377 -1.71443 0.811525)
(100.36 -1.71331 0.815654)
(100.34 -1.71334 0.819098)
(100.316 -1.71454 0.82181)
(100.289 -1.71694 0.823754)
(100.261 -1.7206 0.824867)
(100.231 -1.72563 0.825022)
(100.2 -1.73211 0.824009)
(100.171 -1.74013 0.821565)
(100.145 -1.74955 0.817459)
(100.118 -1.75902 0.811744)
(99.9958 0.0451259 0.00577509)
(99.9811 0.0921391 0.0120917)
(99.9528 0.144623 0.0195798)
(99.9076 0.20629 0.0290286)
(99.8395 0.280864 0.0414488)
(99.7371 0.371963 0.0582207)
(99.5815 0.48225 0.08129)
(99.3404 0.610224 0.113316)
(98.9107 0.742315 0.157831)
(98.5714 0.743741 0.183202)
(97.7746 0.353444 0.247861)
(96.9843 -0.706111 0.333036)
(97.0796 -2.33817 0.433703)
(98.1829 -2.94034 0.526811)
(98.8742 -2.97693 0.592699)
(99.3227 -2.95429 0.632224)
(99.6753 -2.85238 0.656035)
(99.9098 -2.72789 0.668874)
(100.062 -2.6102 0.673301)
(100.159 -2.51282 0.672329)
(100.227 -2.45336 0.672332)
(100.125 -2.58392 0.75818)
(100.002 -2.56796 0.732638)
(99.8881 -2.53855 0.710892)
(99.7886 -2.50538 0.695884)
(99.6942 -2.47606 0.68756)
(99.6028 -2.45107 0.684339)
(99.5146 -2.42895 0.684388)
(99.4296 -2.40881 0.68612)
(99.3472 -2.3904 0.688325)
(99.2668 -2.37375 0.690202)
(99.188 -2.35903 0.691288)
(99.1105 -2.34641 0.691347)
(99.0343 -2.33608 0.690262)
(98.9594 -2.32818 0.687944)
(98.886 -2.32284 0.684258)
(98.8148 -2.32022 0.678944)
(98.7468 -2.32071 0.671626)
(98.6848 -2.32525 0.661884)
(98.624 -2.336 0.64973)
(99.9973 0.0505788 0.00481097)
(99.9877 0.103752 0.0100639)
(99.9688 0.164362 0.0162292)
(99.9379 0.237933 0.0239267)
(99.8896 0.331182 0.0339534)
(99.8137 0.453208 0.0473787)
(99.6912 0.617276 0.0656678)
(99.4858 0.843051 0.0907763)
(99.0744 1.16091 0.125177)
(98.669 1.31794 0.145673)
(97.7232 1.45207 0.173728)
(95.6337 0.677213 0.22852)
(94.4476 -3.45018 0.335416)
(98.2545 -4.70811 0.457113)
(98.7279 -3.88579 0.548654)
(99.2723 -3.86255 0.607545)
(99.6634 -3.65079 0.631442)
(99.8253 -3.41396 0.632046)
(99.8512 -3.22307 0.613385)
(99.7804 -3.05942 0.582442)
(98.5545 -2.86305 0.578071)
(95.0336 -2.55171 0.344427)
(95.09 -2.64774 0.317287)
(95.1684 -2.69942 0.298565)
(95.2373 -2.72708 0.288688)
(95.2986 -2.74291 0.286488)
(95.3583 -2.74975 0.289366)
(95.4182 -2.74847 0.294761)
(95.4779 -2.74048 0.300796)
(95.537 -2.72752 0.306288)
(95.5955 -2.71126 0.310563)
(95.6531 -2.69323 0.313309)
(95.7098 -2.67479 0.314363)
(95.7653 -2.65706 0.313674)
(95.8194 -2.64095 0.311212)
(95.8719 -2.62715 0.306878)
(95.923 -2.61619 0.300421)
(95.9727 -2.60869 0.291346)
(96.0208 -2.60577 0.278742)
(96.078 -2.61034 0.260927)
(99.9991 0.0525195 0.00384277)
(99.9958 0.108115 0.0078497)
(99.989 0.172442 0.0124112)
(99.9775 0.252256 0.0179439)
(99.9585 0.356408 0.0248979)
(99.9273 0.498183 0.033807)
(99.8756 0.699095 0.0452755)
(99.7885 0.996848 0.0597587)
(99.6176 1.46329 0.0770115)
(99.3508 1.85647 0.0868746)
(98.6332 2.77826 0.0953987)
(95.4884 5.73435 0.0992881)
(77.2908 -4.50841 0.179967)
(61.937 -6.93036 -1.10494)
(75.7347 -4.76391 -0.373034)
(77.6681 -3.5199 -0.331332)
(79.7149 -3.01599 -0.36968)
(82.0461 -2.84783 -0.412748)
(84.4507 -2.87804 -0.435305)
(92.6096 -3.74451 -0.514556)
(96.2974 -3.41415 -0.58584)
(96.4846 -3.30753 -0.56325)
(96.6676 -3.22798 -0.54609)
(96.8103 -3.16576 -0.534572)
(96.922 -3.11321 -0.526425)
(97.0139 -3.06712 -0.519512)
(97.0914 -3.02609 -0.512664)
(97.1574 -2.98929 -0.505435)
(97.2147 -2.95616 -0.497826)
(97.2664 -2.92626 -0.490128)
(97.3153 -2.89928 -0.482747)
(97.3635 -2.87496 -0.47606)
(97.4127 -2.85303 -0.470376)
(97.4639 -2.83328 -0.465899)
(97.5173 -2.81547 -0.462797)
(97.573 -2.79929 -0.461334)
(97.6307 -2.78429 -0.461955)
(97.6894 -2.76957 -0.465468)
(97.7629 -2.75302 -0.473075)
(100.001 0.0504208 0.00276689)
(100.005 0.10395 0.00547943)
(100.011 0.166353 0.0083713)
(100.021 0.244497 0.011588)
(100.035 0.347424 0.0151866)
(100.056 0.488478 0.0190941)
(100.09 0.688607 0.0229105)
(100.151 0.982831 0.0254786)
(100.292 1.43221 0.0239288)
(100.338 1.83606 0.0213587)
(100.607 2.80749 0.00735915)
(102.399 5.3152 -0.0459983)
(110.963 4.04589 -0.152027)
(109.022 -6.61373 -0.298371)
(102.757 -6.76227 -0.408282)
(101.122 -4.96081 -0.472162)
(100.697 -3.97155 -0.503819)
(100.542 -3.43761 -0.51411)
(100.465 -3.13 -0.512507)
(100.396 -2.94706 -0.50745)
(100.294 -2.75446 -0.58663)
(100.316 -2.34511 -0.729599)
(100.297 -2.2394 -0.719411)
(100.28 -2.17629 -0.707239)
(100.264 -2.13919 -0.697157)
(100.248 -2.1148 -0.689744)
(100.234 -2.0982 -0.684429)
(100.222 -2.08756 -0.680767)
(100.212 -2.08157 -0.678444)
(100.205 -2.07907 -0.677182)
(100.2 -2.07917 -0.676771)
(100.197 -2.08115 -0.677089)
(100.196 -2.0844 -0.678076)
(100.196 -2.08836 -0.679695)
(100.197 -2.09248 -0.681993)
(100.2 -2.09622 -0.68507)
(100.203 -2.09899 -0.689139)
(100.207 -2.09999 -0.694522)
(100.214 -2.09801 -0.701613)
(100.228 -2.09081 -0.710436)
(100.003 0.0441787 0.00159227)
(100.013 0.0911361 0.0031341)
(100.032 0.145899 0.00449147)
(100.062 0.21438 0.00552845)
(100.106 0.303983 0.00597114)
(100.172 0.424658 0.00523629)
(100.274 0.590276 0.00216466)
(100.437 0.81984 -0.00542532)
(100.746 1.13717 -0.0216074)
(100.967 1.37182 -0.0331167)
(101.804 1.81902 -0.0732714)
(103.397 1.71814 -0.149514)
(105.16 -0.266346 -0.260676)
(104.712 -2.83305 -0.380464)
(102.943 -3.56958 -0.473124)
(101.74 -3.356 -0.536476)
(101.12 -3.00844 -0.577818)
(100.791 -2.7144 -0.602122)
(100.602 -2.49202 -0.615046)
(100.477 -2.32338 -0.621113)
(100.389 -2.18334 -0.623295)
(100.297 -1.87009 -0.764973)
(100.268 -1.82918 -0.757247)
(100.249 -1.80044 -0.749597)
(100.237 -1.7811 -0.743205)
(100.229 -1.76713 -0.737987)
(100.223 -1.75644 -0.733608)
(100.218 -1.74827 -0.729861)
(100.215 -1.74207 -0.726633)
(100.212 -1.73723 -0.723859)
(100.21 -1.7332 -0.72152)
(100.209 -1.72954 -0.719632)
(100.208 -1.72587 -0.718235)
(100.208 -1.72187 -0.717353)
(100.208 -1.71725 -0.717057)
(100.209 -1.71173 -0.717441)
(100.211 -1.70504 -0.718659)
(100.214 -1.69685 -0.720941)
(100.221 -1.68696 -0.72457)
(100.237 -1.67587 -0.729783)
(100.004 0.0342642 0.000764288)
(100.02 0.0706867 0.00129292)
(100.049 0.113038 0.00131108)
(100.094 0.165637 0.000520513)
(100.161 0.233369 -0.00160252)
(100.258 0.322004 -0.00597327)
(100.401 0.437679 -0.0141372)
(100.614 0.58471 -0.0286471)
(100.94 0.7592 -0.0536209)
(101.412 0.84069 -0.0947717)
(102.036 0.744007 -0.15793)
(102.698 0.224816 -0.247349)
(103.048 -0.742503 -0.35536)
(102.803 -1.56304 -0.470307)
(102.172 -1.86983 -0.56745)
(101.554 -1.87585 -0.637714)
(101.118 -1.79061 -0.683689)
(100.836 -1.68593 -0.711678)
(100.65 -1.58504 -0.727566)
(100.52 -1.49385 -0.735262)
(100.432 -1.41334 -0.737127)
(100.375 -1.34073 -0.734539)
(100.338 -1.28278 -0.730956)
(100.312 -1.23597 -0.727481)
(100.293 -1.19912 -0.724196)
(100.28 -1.17083 -0.721266)
(100.27 -1.14945 -0.718941)
(100.261 -1.13364 -0.717371)
(100.254 -1.12232 -0.716583)
(100.248 -1.11455 -0.716525)
(100.242 -1.10948 -0.717109)
(100.237 -1.10635 -0.71823)
(100.232 -1.10452 -0.719782)
(100.228 -1.10342 -0.721664)
(100.224 -1.10253 -0.723826)
(100.222 -1.10141 -0.726265)
(100.222 -1.09963 -0.729039)
(100.223 -1.09686 -0.73228)
(100.227 -1.09299 -0.736161)
(100.235 -1.08828 -0.740763)
(100.005 0.0216555 0.000118813)
(100.024 0.0446159 -0.000106961)
(100.06 0.0712613 -0.00102752)
(100.116 0.104036 -0.00306514)
(100.196 0.145582 -0.00693359)
(100.311 0.198428 -0.0136504)
(100.471 0.264019 -0.0248343)
(100.693 0.339966 -0.0428561)
(100.995 0.413484 -0.0709716)
(101.384 0.446267 -0.113129)
(101.836 0.382945 -0.173137)
(102.254 0.149906 -0.252611)
(102.469 -0.264248 -0.346684)
(102.355 -0.686455 -0.443424)
(101.972 -0.925131 -0.529305)
(101.523 -0.982609 -0.595337)
(101.153 -0.953489 -0.641226)
(100.887 -0.899393 -0.671047)
(100.697 -0.842877 -0.689298)
(100.558 -0.790292 -0.699344)
(100.457 -0.744461 -0.703568)
(100.384 -0.708633 -0.703858)
(100.332 -0.683062 -0.702238)
(100.295 -0.665534 -0.699753)
(100.269 -0.654335 -0.696943)
(100.25 -0.648121 -0.69424)
(100.237 -0.645567 -0.691979)
(100.228 -0.645562 -0.690331)
(100.221 -0.647301 -0.689333)
(100.216 -0.650175 -0.688939)
(100.211 -0.653663 -0.68906)
(100.208 -0.657347 -0.689586)
(100.205 -0.660868 -0.690405)
(100.203 -0.663953 -0.691419)
(100.202 -0.666327 -0.692608)
(100.202 -0.667844 -0.693923)
(100.203 -0.668373 -0.69539)
(100.205 -0.667858 -0.697128)
(100.211 -0.66633 -0.699341)
(100.224 -0.663947 -0.70234)
(100.006 0.00739825 -0.000206251)
(100.027 0.0152279 -0.000805219)
(100.066 0.0242879 -0.00226419)
(100.126 0.0353627 -0.004892)
(100.213 0.049277 -0.0096724)
(100.335 0.0667133 -0.0174996)
(100.501 0.0876886 -0.029993)
(100.722 0.110764 -0.0493592)
(101.005 0.130786 -0.078568)
(101.344 0.135568 -0.120397)
(101.707 0.105555 -0.177293)
(102.018 0.020649 -0.249491)
(102.177 -0.115687 -0.332911)
(102.109 -0.257215 -0.418684)
(101.838 -0.346781 -0.49645)
(101.483 -0.374713 -0.559112)
(101.154 -0.368942 -0.60457)
(100.898 -0.353196 -0.635008)
(100.707 -0.336382 -0.65411)
(100.565 -0.320655 -0.664967)
(100.459 -0.306848 -0.670011)
(100.383 -0.295563 -0.671162)
(100.328 -0.28632 -0.670065)
(100.291 -0.278438 -0.667896)
(100.265 -0.271439 -0.665574)
(100.247 -0.265086 -0.663546)
(100.235 -0.259214 -0.662058)
(100.226 -0.253731 -0.661254)
(100.22 -0.248616 -0.661172)
(100.215 -0.243874 -0.661765)
(100.211 -0.239501 -0.662924)
(100.207 -0.235474 -0.664511)
(100.203 -0.231763 -0.666367)
(100.2 -0.228319 -0.668312)
(100.198 -0.225055 -0.67049)
(100.196 -0.221927 -0.672689)
(100.196 -0.218892 -0.674871)
(100.198 -0.21593 -0.677135)
(100.202 -0.213142 -0.679666)
(100.21 -0.211047 -0.68274)
(99.9939 0.00552014 0.0120401)
(99.9733 0.011072 0.0252127)
(99.9353 0.0168222 0.0407129)
(99.8792 0.0228125 0.0599515)
(99.8039 0.0288098 0.0844958)
(99.7074 0.0341063 0.116233)
(99.5892 0.0371691 0.157216)
(99.4516 0.0352296 0.209758)
(99.303 0.0238728 0.275988)
(99.1611 -0.0028264 0.35696)
(99.0563 -0.0502628 0.45192)
(99.0254 -0.116339 0.556959)
(99.0918 -0.183534 0.664687)
(99.2465 -0.233695 0.76667)
(99.449 -0.257846 0.855287)
(99.6551 -0.265244 0.927573)
(99.8405 -0.263858 0.983642)
(99.9983 -0.25779 1.02535)
(100.129 -0.249509 1.05508)
(100.234 -0.240964 1.07538)
(100.317 -0.232941 1.08859)
(100.381 -0.225566 1.09711)
(100.428 -0.219003 1.10307)
(100.463 -0.213781 1.10775)
(100.489 -0.209955 1.11174)
(100.507 -0.207253 1.11533)
(100.519 -0.205497 1.11872)
(100.527 -0.204578 1.12214)
(100.531 -0.204361 1.12581)
(100.533 -0.204698 1.12979)
(100.533 -0.20546 1.13404)
(100.533 -0.206546 1.13847)
(100.532 -0.207859 1.143)
(100.532 -0.209318 1.14746)
(100.533 -0.21085 1.1516)
(100.535 -0.212422 1.15518)
(100.539 -0.214016 1.15791)
(100.546 -0.215614 1.1595)
(100.555 -0.217238 1.15961)
(100.571 -0.219004 1.15777)
(99.9941 0.016394 0.0117673)
(99.974 0.0329626 0.024642)
(99.9367 0.0502942 0.0398494)
(99.881 0.0686471 0.0588065)
(99.8051 0.0875226 0.0831437)
(99.7058 0.105078 0.1149)
(99.5803 0.117045 0.156456)
(99.4284 0.115277 0.210588)
(99.2552 0.0860658 0.280091)
(99.0776 0.0098367 0.366996)