/*--------------------------------*- C++ -*----------------------------------*\
| =========                 |                                                 |
| \\      /  F ield         | OpenFOAM: The Open Source CFD Toolbox           |
|  \\    /   O peration     | Version:  2306                                  |
|   \\  /    A nd           | Website:  www.openfoam.com                      |
|    \\/     M anipulation  |                                                 |
\*---------------------------------------------------------------------------*/
FoamFile
{
    version     2.0;
    format      ascii;
    arch        "LSB;label=32;scalar=64";
    class       volVectorField;
    location    "0.4";
    object      Force;
}
// * * * * * * * * * * * * * * * * * * * * * * * * * * * * * * * * * * * * * //

dimensions      [1 1 -2 0 0 0 0];

internalField   uniform (0 0 0);

boundaryField
{
    walls
    {
        type            calculated;
        value           uniform (0 0 0);
    }
    inlet
    {
        type            calculated;
        value           uniform (0 0 0);
    }
    outlet
    {
        type            calculated;
        value           uniform (0 0 0);
    }
    NASA
    {
        type            calculated;
        value           nonuniform List<vector> 
14179
(
(-0.0147651 -0.135736 1.27259e-05)
(-0.0132461 -0.109446 9.3719e-06)
(-0.0679244 -0.549147 0.00123049)
(-0.102387 -0.824192 0.00442024)
(-0.0673776 -0.545178 0.000641194)
(-0.11071 -0.891161 0.00483384)
(0.226334 0.982705 -0.00051753)
(0.0926416 0.464844 -6.52181e-05)
(0.657096 3.22308 0.00306645)
(0.0966076 0.484795 -6.81502e-05)
(-0.00157692 -0.0141721 9.68363e-06)
(-0.0179511 -0.147118 0.000768063)
(0.129607 0.647803 -0.00319683)
(-0.0357608 -0.32554 0.00182052)
(0.0614578 0.306777 -0.00148068)
(1.37792 0.929522 0.00284477)
(1.39305 0.923388 -0.000522421)
(0.0211368 0.118328 -7.35809e-05)
(0.168797 1.00154 -0.000161712)
(1.26935 0.841576 -0.00482154)
(-0.0173172 -0.242221 2.35879e-06)
(-0.0216454 -0.201184 -9.8583e-05)
(-0.0198061 -0.274871 -0.000204598)
(-0.00894093 -0.0650584 5.63301e-06)
(-0.0134363 -0.111068 3.43312e-05)
(-0.0096596 -0.070294 2.74058e-05)
(-0.0129203 -0.106529 0.000543772)
(-0.015148 -0.108642 0.000573146)
(-0.0132898 -0.121527 0.000618939)
(-0.0155559 -0.213891 0.00415883)
(0.0464412 0.202814 -7.07389e-06)
(0.0521224 0.245767 -9.86473e-06)
(0.0560499 0.264276 -0.00011442)
(0.0458268 0.199599 -2.65161e-05)
(0.0613876 0.225142 -2.36278e-07)
(0.0662741 0.242987 -7.73571e-07)
(0.0304963 0.110628 4.97768e-07)
(0.0337674 0.122448 1.83142e-06)
(-0.00217676 -0.0103684 0.000169253)
(-0.0129762 -0.0631841 0.000799853)
(0.167921 0.613545 -0.00250067)
(0.0980429 0.353672 -0.00103679)
(0.0990478 0.497099 -0.000117686)
(-0.00623853 -0.0437914 5.22674e-06)
(-0.00566045 -0.0397334 3.99674e-06)
(0.157681 0.791891 -0.000198146)
(-0.00983851 -0.0681674 0.000393494)
(0.0961025 0.480128 -0.00161519)
(0.0892941 0.446548 -0.00163638)
(0.106841 0.436537 -0.000403575)
(0.0838762 0.311807 -2.74299e-05)
(0.0835089 0.310457 -7.76682e-05)
(-0.0626773 1.52847 -0.000227254)
(1.38803 0.922931 -0.000773361)
(-0.0497217 1.22096 8.01337e-05)
(-0.00267575 1.29947 -0.000194282)
(0.0666628 1.00887 5.98792e-07)
(0.0686291 1.03696 -0.000296953)
(-0.00228665 1.01801 -1.61794e-05)
(0.0917261 0.360428 -2.60143e-05)
(0.170219 1.00938 -0.000298515)
(0.00738161 0.0268454 -1.86408e-05)
(-0.0229142 0.567431 -0.00195525)
(0.917537 0.626429 0.0747964)
(-0.000808977 0.532343 -0.00212739)
(0.0268019 0.407298 -0.00150711)
(0.126189 0.739149 0.00519513)
(-0.0148709 -0.148743 1.63938e-05)
(-0.0147066 -0.135286 2.51848e-05)
(-0.100804 -0.811558 0.00434762)
(-0.0117226 -0.0929115 8.71454e-06)
(-0.0132236 -0.10927 1.99739e-05)
(1.31583 0.871369 -0.0056363)
(1.26837 0.840206 -0.00522324)
(0.343679 2.0396 -0.01183)
(0.258742 1.52998 -0.00822063)
(-0.111978 -0.902643 0.00341212)
(-0.0572686 -0.35668 0.00197452)
(-0.0560917 -0.351824 0.00200305)
(-0.0434244 -0.25489 0.00143439)
(0.155759 0.672163 -0.00378928)
(0.174985 0.757084 -0.00418403)
(0.761738 1.30787 -4.57886e-05)
(0.762233 1.30678 -0.000309095)
(0.0934147 0.468659 -8.01426e-05)
(0.087312 0.419307 -4.78852e-05)
(-0.00057903 -0.00506555 -8.41062e-08)
(0.00113383 0.00537975 -2.95682e-07)
(0.00116314 0.00554513 -2.30346e-06)
(-0.000566252 -0.0049783 5.89284e-07)
(0.0983656 0.493667 -6.95664e-05)
(0.090879 0.468522 -5.34728e-05)
(-0.020123 -0.164657 0.000924865)
(-0.0135824 -0.0974789 0.000570552)
(-0.0203924 -0.145758 0.000816613)
(-0.0124082 -0.0856881 0.000533547)
(-0.0181574 -0.124682 0.00065497)
(0.0846402 0.422607 -0.0023583)
(-0.0201066 -0.183164 0.00101145)
(-0.0248231 -0.341399 0.00199769)
(-0.0208968 -0.293958 0.00101897)
(0.079386 0.39675 -0.00218622)
(1.37505 0.923516 -0.00264951)
(0.100429 0.592086 -0.000126013)
(0.108495 0.606652 -5.37559e-05)
(0.107704 0.60212 -0.000121164)
(0.195014 1.35781 -0.000276266)
(0.112809 0.669178 -0.000133458)
(0.169032 1.00283 -0.000202515)
(0.0224232 0.0211905 2.2296e-05)
(0.377648 -0.139173 0.00378456)
(0.386572 -0.153271 0.00181617)
(0.0190748 0.0183605 -4.98731e-05)
(-0.00693042 -0.0296957 0.000235308)
(0.0213474 0.0787302 -0.000380975)
(0.0020905 0.00709345 3.08625e-05)
(0.0212636 0.0856118 -0.000310357)
(-0.00963945 -0.0430403 0.000255897)
(-0.00208801 -0.0115549 0.000143872)
(0.00405949 0.0169044 -3.8017e-05)
(-0.0181949 -0.0880311 0.00048807)
(-0.0011698 0.729696 -0.00374864)
(0.0404104 0.604955 -0.0032056)
(-0.00169556 0.978257 -0.00509899)
(0.0315243 0.478209 -0.00284303)
(-0.0347713 0.866269 -0.00463768)
(1.09752 0.73847 -0.00450162)
(-0.0471234 1.16148 -0.00600516)
(0.108369 0.64184 -0.00443664)
(0.154601 0.605744 -0.00355304)
(0.116433 0.455569 -0.00244489)
(0.107257 0.391555 -0.00208303)
(0.151322 0.553132 -0.00294095)
(0.0624395 0.225407 -0.00119728)
(0.0849191 0.307089 -0.00170465)
(-0.0133922 -0.150845 8.10812e-06)
(-0.0172015 -0.240268 3.76955e-05)
(-0.0107765 -0.0829518 8.11068e-06)
(-0.00878711 -0.0639448 1.06512e-05)
(0.00066853 0.00208615 0.533251)
(-0.0129575 -0.102055 0.000528327)
(0.000638195 0.00199289 0.507191)
(-0.0144129 -0.109922 0.000580212)
(0.00096146 0.0024047 0.576512)
(-0.0130151 -0.130104 0.000727573)
(0.00121742 0.00284793 0.577417)
(-0.0121184 -0.139817 0.00157125)
(0.0519206 0.2448 -5.44821e-05)
(0.0387627 0.176287 -1.73224e-05)
(0.0390751 0.177731 -4.04752e-05)
(0.0460427 0.200516 -3.39146e-05)
(0.045294 0.199481 -1.93658e-05)
(0.0455262 0.200528 -4.18867e-05)
(0.0614255 0.225203 3.99658e-06)
(0.0236741 0.117726 -2.47791e-05)
(0.0211215 0.107136 -2.28391e-05)
(0.0311038 0.112801 5.92964e-06)
(0.0263169 0.0925804 -3.10622e-08)
(-0.00656633 -0.0300499 0.000306165)
(-0.00553382 -0.0263614 0.000323606)
(0.000490648 0.00161683 0.318329)
(0.000487458 0.00156084 0.311167)
(0.000476104 0.00153144 0.307495)
(0.000336966 0.00152653 0.35274)
(0.0922537 0.314513 -0.000671443)
(0.157858 0.552228 0.00199386)
(3.61992e-06 0.00153868 0.331434)
(0.000398549 0.000872694 0.300313)
(0.000122366 0.0005335 0.105938)
(0.0807666 0.283638 -0.000803999)
(0.284377 0.660674 -1.0743e-05)
(0.166563 0.587232 4.27561e-05)
(0.164884 0.581359 -6.66114e-05)
(0.0787739 0.367765 -3.05193e-05)
(0.0804003 0.375364 -5.12424e-05)
(0.13623 0.650505 -6.36655e-05)
(0.0793141 0.353034 -4.26233e-05)
(0.081326 0.368998 -2.58507e-05)
(0.0832603 0.377674 -4.70458e-05)
(0.0784713 0.349418 -1.87098e-05)
(-0.00519266 -0.0363242 5.30009e-06)
(-0.00616211 -0.0432593 6.03564e-06)
(0.145405 0.769923 -6.49762e-05)
(0.265815 0.458629 0.00962623)
(0.00126066 0.00511697 0.862812)
(0.000348994 0.00272566 0.411896)
(0.0482914 0.140529 -0.00035143)
(-0.0117996 -0.0736639 0.000468621)
(-0.0118248 -0.074718 0.000616177)
(0.00111288 0.00321471 0.678013)
(0.000400383 0.000944294 0.308727)
(0.0952651 0.489314 -0.000673606)
(0.000614176 0.00103264 0.372355)
(0.138626 0.729144 0.00275616)
(0.000631943 0.00186648 0.345606)
(0.000481094 0.00162976 0.327569)
(-0.000237706 0.00139239 0.350814)
(7.06447e-05 0.000673269 0.111525)
(0.0796432 0.380644 -0.00142337)
(0.102146 0.474861 -0.000727809)
(0.0005069 0.000652398 0.204416)
(9.83985e-05 0.000755647 0.1068)
(0.167958 0.706273 -0.000633115)
(0.0838965 0.311885 -4.41804e-05)
(0.0798782 0.305776 -3.34843e-05)
(0.0951791 0.38801 -6.60415e-05)
(0.0668228 0.269144 -1.95122e-05)
(-0.838435 2.68033 -0.0205461)
(-0.0541228 1.32517 -5.38432e-05)
(-0.172412 1.61129 0.000708227)
(0.0662721 1.00086 -0.000166679)
(0.049699 1.06355 -8.16943e-05)
(-0.00235499 1.10439 -4.35749e-05)
(0.0279234 1.05554 -5.80559e-05)
(0.10152 1.11485 -0.00015361)
(0.135216 1.74673 -0.000137353)
(0.130646 1.68702 -0.000240077)
(0.102542 1.12654 -0.000101576)
(0.113112 1.15607 -0.000178573)
(0.11214 1.04391 -3.98931e-05)
(0.118515 1.10341 -0.0002022)
(0.108842 1.11215 -4.32345e-05)
(0.0644662 0.267039 -1.88704e-05)
(0.0586653 0.232713 -1.54326e-05)
(0.0914513 0.359234 -1.30514e-05)
(0.123579 0.837239 -0.00019704)
(0.123259 0.776336 -0.000151676)
(-0.000206908 0.00197772 0.567225)
(0.00111196 0.00456315 0.893844)
(0.000928434 0.00280334 0.000129908)
(0.000572672 0.00458147 0.739359)
(0.0019373 0.00654605 0.000112368)
(0.000624336 0.0109074 0.27452)
(-0.0606102 0.580558 -0.00256233)
(0.00764819 0.00106129 1.74588)
(0.000445601 0.00125436 0.302696)
(0.0140095 0.514768 -0.00212294)
(0.000827058 0.000672908 0.243939)
(0.022997 0.48299 -0.00187743)
(0.0607039 0.522961 -0.00212053)
(0.0604242 0.513096 -0.00206655)
(0.000429622 0.00101037 0.242774)
(0.000461655 0.00110715 0.267177)
(0.0569275 0.525945 -0.00201921)
(0.0517571 0.522926 -0.0017142)
(0.0468634 0.513672 -0.00038262)
(2.37674e-05 9.41559e-05 0.224124)
(-0.0191126 -0.105002 0.00145878)
(0.00032399 0.00196382 0.503416)
(0.0906364 0.504455 -0.00165293)
(0.000480975 0.00158056 0.318028)
(0.000483245 0.00158705 0.319214)
(0.48602 -0.193572 -0.00366055)
(0.223524 0.211383 0.00159787)
(0.000192646 0.000287954 0.077266)
(-0.0530044 -0.521406 0.00199054)
(-0.0697296 -0.563425 0.00215988)
(-0.0551586 -0.542402 0.00257046)
(-0.070001 -0.565593 0.00221108)
(-0.0745638 -0.602006 0.00286603)
(-0.0604927 -0.594389 0.00307353)
(-0.0853979 -0.688533 0.00357751)
(0.178024 0.771025 -0.00426337)
(0.44523 2.18144 -0.0118299)
(0.181945 0.788389 -0.00434783)
(0.424445 2.07909 -0.0113031)
(-0.0674899 -0.545948 0.000720236)
(-0.0434724 -0.271264 0.00147947)
(-0.106457 -0.856691 0.0046086)
(-0.0490598 -0.305709 0.00167213)
(1.39352 0.923833 -0.00130581)
(1.39364 0.923783 -0.000591258)
(0.242793 1.054 -0.000737976)
(0.630146 3.09187 -0.00372859)
(0.587779 2.88395 -0.00215052)
(0.244516 1.06115 -0.00126059)
(0.44581 2.64367 -0.00198606)
(0.483924 2.86964 -0.00347584)
(-0.00211971 -0.0164061 2.12029e-05)
(-0.0016959 -0.0144067 1.14377e-05)
(0.0210233 0.118783 -0.000142866)
(0.0214256 0.120539 -9.27104e-05)
(0.0483748 0.210006 -0.00102421)
(0.0352177 0.159981 -0.000776674)
(0.0584564 0.254574 -0.0012827)
(0.0270164 0.121813 -0.000560007)
(-0.109775 -0.88426 0.00478692)
(-0.0699333 -0.508727 0.00276727)
(0.0157276 0.0734308 -0.000274839)
(-0.0118442 -0.065518 0.000416234)
(0.0633228 0.231023 -0.00129723)
(0.071119 0.259432 -0.00143346)
(0.0343959 0.12406 -0.000698738)
(0.0397157 0.14324 -0.000792207)
(0.312341 1.41321 -0.000795196)
(0.183957 0.798106 -0.000205836)
(0.348555 1.64835 -0.000977705)
(0.142901 0.717257 -0.000267421)
(-0.0192339 -0.161817 0.000217554)
(-0.0442861 -0.328062 0.000447343)
(-0.00719905 -0.0525725 -9.6577e-07)
(-0.000645729 -0.00910971 6.97586e-06)
(-0.0195876 -0.133993 7.97241e-05)
(-0.0260302 -0.181576 0.00014175)
(0.0959561 0.392372 5.85816e-05)
(0.0831602 0.309223 -0.000179346)
(0.0833701 0.309955 -0.000107182)
(0.107251 0.440083 -0.000842612)
(0.163454 0.718043 -0.000376633)
(0.14 0.645237 -0.000248584)
(0.170672 0.750401 -0.000436495)
(0.179204 0.835724 -0.000280571)
(-0.00290722 1.3758 -0.000258544)
(0.0666513 1.00522 -0.0005652)
(-0.00328202 1.48775 -0.000723167)
(0.0685372 1.03522 -0.000351333)
(-0.0654025 1.59544 -0.000297778)
(1.39086 0.923155 -0.000485758)
(-0.0697054 1.69912 -0.000799506)
(0.435004 3.73024 -0.0025871)
(0.0968136 0.380397 -6.85765e-05)
(0.0897856 0.352768 -0.00016725)
(0.0758816 0.278212 -9.82523e-05)
(0.0699024 0.256304 -1.82493e-05)
(0.0555804 0.291326 -0.000216848)
(0.181053 0.893593 -0.0014002)
(0.0204241 0.113482 -9.53724e-05)
(0.0458769 0.246072 -0.000151822)
(0.82471 5.1616 0.000720629)
(0.384377 2.56799 -0.000227883)
(0.0394005 0.142856 -4.44272e-05)
(0.0354202 0.128447 -4.02614e-06)
(1.251 0.831336 -0.00372308)
(0.0891874 0.61809 -0.00336118)
(0.244723 0.229597 -0.00126943)
(0.495544 -0.205408 0.000526032)
(0.231648 0.218007 -0.00128406)
(0.516225 -0.214348 0.000284001)
(0.0636603 0.233402 3.9994e-06)
(0.0289784 0.101885 4.76203e-06)
(0.0325139 0.117913 7.70302e-06)
(0.284394 0.660753 -3.64904e-05)
(0.273975 0.804327 -0.000152641)
(0.00103389 0.00355333 0.729696)
(0.000426492 0.00195622 0.360964)
(0.000611769 0.00106541 0.381474)
(-0.195076 1.80723 -0.000281846)
(-0.0589298 1.43936 -9.70223e-05)
(1.38379 0.923447 -0.00142517)
(0.0291483 0.0275546 2.98211e-05)
(0.374651 -0.153992 0.00014588)
(0.382795 -0.155639 0.000616866)
(0.0301825 0.0284918 2.15007e-05)
(0.000638355 0.00240473 0.545177)
(0.000486481 0.00123533 0.378633)
(0.000441878 0.00130342 0.339977)
(0.000658912 0.00192823 0.362571)
(-0.092337 -0.743949 0.00394779)
(1.35142 0.895026 -0.0057955)
(1.33728 0.885635 -0.00573391)
(1.31207 0.868896 -0.0056212)
(1.33609 0.884836 -0.0057298)
(0.3954 1.9358 -0.0105444)
(0.174586 0.755559 -0.00418216)
(0.176676 0.765066 -0.00423207)
(0.416867 2.0418 -0.0111104)
(0.267701 1.58319 -0.00855118)
(0.286198 1.69287 -0.0091056)
(-0.0256071 -0.151323 0.000840682)
(-0.03223 -0.189673 0.00105403)
(-0.0562338 -0.350078 0.00192852)
(-0.0510333 -0.317875 0.00174192)
(-0.041635 -0.244291 0.00136679)
(-0.0347074 -0.204019 0.00113545)
(0.251371 2.14125 -0.0113977)
(0.238483 2.03057 -0.0108859)
(0.0245725 0.0907361 -0.000450291)
(0.0228133 0.092194 -0.000495907)
(0.0343597 0.139722 -0.000502974)
(0.0326128 0.120666 -0.000624765)
(0.00134059 0.00472493 4.61729e-05)
(0.0255608 0.109213 -0.000445447)
(0.034774 0.150164 -0.000698055)
(0.0201974 0.0895921 -0.000344643)
(0.0405439 0.150194 -0.000793729)
(0.0443269 0.180799 -0.000700719)
(0.0348766 0.129095 -0.000673334)
(0.0422741 0.632589 -0.0033391)
(-0.0017865 1.02169 -0.00532513)
(-0.00199335 1.12631 -0.0058677)
(0.0465696 0.69714 -0.00368458)
(-0.0545448 1.34321 -0.0069494)
(1.30291 0.862792 -0.00557299)
(-0.0570252 1.40393 -0.0072661)
(-0.0489753 1.20682 -0.00624295)
(-0.0533373 1.31366 -0.00679762)
(1.29957 0.860576 -0.00555843)
(-0.00205152 1.1547 -0.00601408)
(0.050865 0.762553 -0.00402191)
(-0.00216557 1.21042 -0.00630581)
(0.0478813 0.717256 -0.00376197)
(0.224761 1.3302 -0.00691925)
(0.408535 2.54209 -0.0158154)
(0.235323 1.56928 -0.00845511)
(0.245497 1.45067 -0.00791368)
(0.40158 2.50654 -0.0134175)
(0.374371 2.33592 -0.0127725)
(0.194205 1.29204 -0.00832314)
(-0.0817465 -0.600969 0.00280124)
(-0.102769 -0.827658 0.0046002)
(-0.0672764 -0.447025 0.00245022)
(-0.0573046 -0.357397 0.00199836)
(-0.0803554 -0.53919 0.00285925)
(-0.0534159 -0.333905 0.00190377)
(-0.0248871 -0.13852 0.000811486)
(-0.0451495 -0.265453 0.00151753)
(0.00239894 0.00544487 0.000196144)
(-0.0475857 -0.280993 0.00164411)
(0.229701 1.03278 -0.00597594)
(0.178272 0.770892 -0.0042383)
(0.236644 1.11597 -0.00610434)
(0.176387 0.762967 -0.00420323)
(0.224011 1.01062 -0.0055533)
(0.23968 1.12968 -0.00661233)
(0.365718 1.78875 -0.00995372)
(0.104585 0.409133 -0.00220898)
(0.088758 0.347136 -0.00190616)
(0.0944351 0.344647 -0.00185183)
(0.0747587 0.272716 -0.00149733)
(0.0862395 0.337317 -0.00186581)
(0.0804422 0.314708 -0.00175648)
(0.0548458 0.197931 -0.00106091)
(0.0422096 0.152239 -0.00083602)
(0.12213 0.283203 -0.00151021)
(0.103519 0.239938 -0.00123915)
(-0.0207349 -0.157322 0.000890211)
(-0.0182574 -0.130716 0.000743022)
(0.0802856 0.410697 -0.00252025)
(0.0849104 0.424138 -0.00227527)
(0.122663 0.648082 -0.00412026)
(-0.0192827 -0.190847 0.000984549)
(-0.0199373 -0.182025 0.0010082)
(-0.0171914 -0.189514 0.000728109)
(-0.021255 -0.295255 0.00154822)
(0.0762618 0.365259 -0.00212334)
(0.0808288 0.403816 -0.00215689)
(-0.00451242 -0.0190021 0.000154394)
(0.00541741 0.0207665 1.79255e-07)
(-0.00114156 -0.00516303 9.60912e-05)
(0.0123035 0.0450693 -0.000172043)
(0.0174528 0.644009 -0.00334241)
(-0.00140271 0.843512 -0.00438822)
(0.0266126 0.563132 -0.00300623)
(0.0357665 0.536507 -0.00290406)
(-0.10492 0.995968 -0.00650291)
(-0.0411087 1.01606 -0.00529274)
(1.21543 0.811923 -0.00210147)
(-0.454323 1.47801 -0.0071007)
(-0.0449844 1.10969 -0.00575221)
(-0.140151 1.30263 -0.00663371)
(-0.0120006 -0.0627486 0.000400612)
(-0.00889303 -0.045776 0.000303635)
(-0.0106636 -0.0546473 0.000356503)
(-0.0102178 -0.0536249 0.00034785)
(-0.0248765 -0.136641 0.000670828)
(0.0009227 0.00228625 0.386156)
(0.0578558 0.389666 -0.00210995)
(0.0910463 0.631142 -0.00351603)
(0.0597822 0.402341 -0.00223471)
(0.124838 0.455891 -0.00240553)
(0.151709 0.554313 -0.00292317)
(0.0719779 0.259925 -0.0013684)
(0.0611226 0.213957 -0.00113614)
(0.0800398 0.280674 -0.00166302)
(0.0879472 0.31779 -0.00168802)
(0.451248 -0.188521 -0.00230884)
(0.208619 0.191628 -0.000227107)
(0.255528 0.237729 -0.00111746)
(0.522926 -0.218096 -0.000538001)
(0.21293 0.923864 -0.00499896)
(0.531353 2.60577 -0.0137677)
(0.215311 0.934115 -0.00499732)
(0.546683 2.68075 -0.0143024)
(-0.067805 -0.548276 0.00102204)
(-0.00262018 -0.0194388 4.55529e-05)
(-0.00244983 -0.0183864 3.63245e-05)
(0.199996 0.867733 -0.001613)
(0.634816 3.11357 -0.00697124)
(0.234204 1.01591 -0.00227319)
(-0.0623197 -0.453501 0.00244059)
(0.175448 0.771836 -0.000809225)
(0.142564 0.658202 -0.000796344)
(0.175841 0.773652 -0.000934523)
(0.142315 0.656966 -0.000695982)
(0.0756534 0.277273 -0.000307416)
(0.0758106 0.277742 -0.000228681)
(-0.0343317 -0.251784 0.00030001)
(0.160729 0.795739 -0.000963121)
(0.0627658 0.330156 -0.000399847)
(0.0419442 0.152039 -0.000167984)
(0.0409402 0.148309 -0.000117309)
(1.39281 0.923309 -0.000462019)
(0.0325726 0.0306309 5.28442e-06)
(0.350832 -0.145621 2.00891e-05)
(0.0334729 0.0314722 -2.01234e-06)
(0.353998 -0.146868 1.20781e-05)
(-0.022679 -0.143089 0.000759607)
(-0.0252461 -0.158916 0.000849964)
(-0.0414622 -0.258873 0.00141049)
(-0.0969131 -0.780495 0.00416616)
(-0.036572 -0.228733 0.00124195)
(0.18385 0.796782 -0.00439091)
(0.195961 0.850023 -0.00467705)
(0.101058 0.44261 -0.00234252)
(0.0754797 0.346703 -0.00182933)
(0.104585 0.458171 -0.00242819)
(0.0721483 0.331265 -0.00174358)
(0.0421626 0.19229 -0.000965536)
(0.0669915 0.292278 -0.00149719)
(0.0738684 0.322638 -0.00167029)
(0.0480067 0.219419 -0.00112127)
(0.0582673 0.21325 -0.00122594)
(0.0565532 0.206842 -0.00118894)
(0.0615908 0.22473 -0.00126751)
(0.0578909 0.211327 -0.00120304)
(0.0127421 0.0649674 -0.000319612)
(0.0659371 0.323601 -0.00168604)
(-0.0694586 -0.505138 0.00274334)
(0.0231858 0.110794 -0.000496073)
(-0.00812992 -0.0456648 0.000299189)
(0.0302363 0.145993 -0.000698826)
(0.0316505 0.11457 -0.000664674)
(0.0302224 0.109318 -0.000634212)
(0.0332153 0.119814 -0.000678407)
(0.0307273 0.110892 -0.000635292)
(1.31484 0.87071 -0.00562953)
(1.28215 0.849069 -0.00541209)
(0.12617 0.118873 -0.000735065)
(0.362672 -0.150537 0.000490821)
(0.372188 -0.154486 0.000505485)
(0.114466 0.107835 -0.000670634)
(0.473567 -0.196324 0.000590558)
(0.215392 0.202904 -0.00121995)
(0.201418 0.189805 -0.00114798)
(0.453903 -0.188278 0.000581488)
(5.86004e-06 -0.0181851 4.14064e-05)
(8.26458e-05 -0.0125763 4.04213e-05)
(-0.052482 -0.516315 0.00165941)
(-0.00011021 -0.0267269 0.000103254)
(-7.51245e-05 -0.024106 7.74778e-05)
(-0.0686081 -0.554504 0.00179057)
(-0.0538567 -0.529706 0.00233329)
(-3.59818e-05 -0.0213612 0.0001045)
(-2.50281e-05 -0.0205245 9.20822e-05)
(-0.0714219 -0.576927 0.00252174)
(-0.0717689 -0.579697 0.00256496)
(-0.000282146 -0.0395634 0.000207208)
(-0.0584587 -0.574566 0.00288997)
(-0.000278558 -0.0392865 0.000201633)
(-0.0808731 -0.652397 0.00329691)
(1.37033 0.907668 -0.00576989)
(1.36807 0.906148 -0.00580275)
(1.36503 0.904104 -0.00582442)
(1.36986 0.907332 -0.00581443)
(0.203559 0.883214 -0.0047927)
(0.525684 2.57775 -0.0138744)
(0.541475 2.65517 -0.014194)
(0.1971 0.85518 -0.00466594)
(0.178943 0.775124 -0.00428205)
(0.235433 1.06307 -0.00583408)
(0.26619 1.25657 -0.00684154)
(0.438567 2.14864 -0.0116616)
(0.180565 0.782279 -0.00431759)
(0.243189 1.09847 -0.00601261)
(0.255282 1.20475 -0.00657625)
(0.430983 2.1113 -0.0114754)
(1.38159 0.915919 -0.0026086)
(1.38104 0.915572 -0.00206845)
(1.39016 0.921599 -0.00141009)
(1.3826 0.916607 -0.00198756)
(0.477677 2.83259 -0.00391564)
(0.451973 2.67961 -0.00479981)
(-0.00223317 -0.0170701 2.44631e-05)
(-0.0677136 -0.547587 0.000945991)
(-0.0023559 -0.0178083 3.28333e-05)
(0.0205247 0.115923 -0.000262097)
(0.0207087 0.116998 -0.000220311)
(0.0208988 0.118094 -0.000158334)
(0.0208145 0.117614 -0.00020583)
(0.22943 0.995535 -0.0013444)
(0.193989 0.841728 -0.00145582)
(0.608282 2.98379 -0.00526945)
(-0.0566362 -0.376595 0.00203803)
(-0.0452392 -0.282157 0.00154013)
(-0.065744 -0.478216 0.00258173)
(-0.0472161 -0.294342 0.00160835)
(-0.061206 -0.406694 0.00220822)
(0.428462 3.67038 -0.00375156)
(0.428618 3.67067 -0.00312555)
(0.0830862 0.308957 -0.000205179)
(0.107284 0.440255 0.000260297)
(0.107328 0.440476 -0.000979731)
(0.0829317 0.308421 -0.000278955)
(0.138975 0.640815 -0.000524929)
(0.174153 0.765922 -0.000566915)
(0.175253 0.770905 -0.000690546)
(0.141963 0.655152 -0.000595173)
(0.107251 0.440166 0.000120623)
(0.0826865 0.307553 -0.000377634)
(0.107136 0.43972 -0.00111566)
(0.08284 0.308093 -0.00030658)
(0.0657551 0.992654 -0.000613845)
(-0.0033223 1.49687 -0.000848046)
(-0.00333216 1.47476 -0.00123212)
(0.0635141 0.959423 -0.000850965)
(-0.0689983 1.67881 -0.00150661)
(1.39371 0.923926 -0.00101777)
(-0.0644123 1.56699 -0.0017977)
(-0.0701864 1.7102 -0.000948235)
(-0.0697436 1.69743 -0.00137647)
(1.39447 0.924406 -0.000895445)
(-0.00330057 1.4536 -0.00132599)
(0.0585622 0.8866 -0.00104645)
(-0.0030488 1.33193 -0.00156873)
(0.0624061 0.942949 -0.00091247)
(0.337918 1.52906 -0.0010711)
(0.252501 1.09595 -0.000944384)
(0.622799 3.05585 -0.00312366)
(0.374593 1.77108 -0.002123)
(0.360904 1.70683 -0.00119893)
(0.610509 2.9955 -0.0026698)
(0.2551 1.10715 -0.00114483)
(0.343058 1.55192 -0.00184775)
(0.088521 0.34776 -0.000197977)
(0.0829435 0.325696 -0.000277314)
(0.0750678 0.275191 -0.000127759)
(0.075261 0.275756 -0.000200774)
(0.0806268 0.316574 -0.000304094)
(0.733179 4.58767 -0.0037712)
(0.471853 2.79778 -0.00251453)
(0.757504 4.74141 -0.00424222)
(0.44905 3.00425 -0.00315379)
(0.458178 3.06453 -0.00271203)
(0.48584 2.88104 -0.00296496)
(-0.0324019 -0.23833 0.000188886)
(-0.0209854 -0.14195 0.000171416)
(-0.00204589 -0.0160343 1.79722e-05)
(-0.0202115 -0.137474 0.000108719)
(-0.00197454 -0.0157782 1.54355e-05)
(0.0620187 0.325656 -0.000248089)
(0.158394 0.783251 -0.000595697)
(0.160745 0.795444 -0.000723458)
(0.047002 0.253249 -0.000306658)
(0.0210565 0.1189 -0.00012619)
(0.0469868 0.252624 -0.000195217)
(0.0211312 0.119162 -0.000108577)
(0.0396837 0.143866 -5.97597e-05)
(0.0401584 0.145497 -0.000102569)
(0.0654665 0.238827 -0.00133527)
(0.067877 0.247603 -0.00137707)
(0.0317889 0.111163 -0.000627624)
(0.0358569 0.129323 -0.00072456)
(0.0375927 0.131462 -0.000726913)
(0.0375156 0.1353 -0.000753399)
(0.273747 0.803869 -0.000426758)
(0.273965 0.804346 -0.000248252)
(0.285205 0.662835 -0.000275726)
(0.285088 0.662523 -0.000222736)
(-0.200155 1.85378 -0.000381493)
(-0.0673671 1.64406 -0.000508712)
(1.39174 0.92295 -0.000440109)
(-0.879869 2.86055 -0.00114185)
(-0.0687941 1.67793 -0.000658617)
(-0.209004 1.93369 -0.000865023)
(0.0755204 0.276907 -6.40931e-05)
(0.0732923 0.268739 -3.65309e-05)
(0.0384418 0.139388 -2.61673e-05)
(0.0338296 0.118923 -3.21801e-05)
(0.0302681 0.106417 9.80833e-07)
(0.0369458 0.13397 -1.28856e-05)
(0.417372 2.47186 -0.0131341)
(0.378338 2.24035 -0.0119697)
(-0.00171109 -0.0129444 8.10731e-05)
(-0.00463129 -0.0298583 0.000172364)
(-0.0295073 -0.185182 0.000998502)
(-0.0263567 -0.165764 0.000888347)
(-0.00948824 -0.0579858 0.000326011)
(-0.00590964 -0.0372628 0.000212344)
(1.35019 0.894218 -0.00578969)
(1.35967 0.900517 -0.005822)
(1.36611 0.904817 -0.00583076)
(1.3603 0.900943 -0.00582257)
(-0.0232199 -0.137501 0.000764332)
(-0.0175926 -0.104917 0.000583893)
(0.344576 2.03943 -0.0109055)
(0.368302 2.1807 -0.0116587)
(-0.0955288 -0.769441 0.00410159)
(-0.030912 -0.193841 0.00104671)
(-0.0348731 -0.218262 0.00118372)
(-0.0111076 -0.0673631 0.000377156)
(-0.0156177 -0.0934815 0.000521076)
(0.201052 0.872246 -0.00477948)
(0.514071 2.52072 -0.013602)
(0.196331 0.851798 -0.004649)
(0.478304 2.34456 -0.0126864)
(0.280598 2.39113 -0.0127427)
(0.288773 2.46119 -0.0131247)
(0.0646248 0.264317 -0.00106473)
(0.0525892 0.195047 -0.00104585)
(0.055374 0.205416 -0.00110324)
(0.0607431 0.248346 -0.00163375)
(0.0961313 0.420875 -0.00222196)
(0.0637011 0.292138 -0.00152769)
(0.0917846 0.4017 -0.00211449)
(0.0676963 0.31064 -0.00163084)
(0.0586263 0.217527 -0.00117008)
(0.0562983 0.208858 -0.00112275)
(0.0693527 0.283773 -0.00114735)
(-0.00249956 1.36993 -0.00713333)
(0.0570433 0.855706 -0.00450766)
(0.0583085 0.874795 -0.00460653)
(-0.00244359 1.34383 -0.00699797)
(-0.0641663 1.57855 -0.00816475)
(1.34768 0.892539 -0.00577921)
(-0.0648587 1.59536 -0.00824977)
(-0.00251901 1.37887 -0.00717684)
(0.0597197 0.896122 -0.00471457)
(-0.00255026 1.39104 -0.00723794)
(0.058725 0.881085 -0.00463875)
(-0.0637446 1.56826 -0.0081146)
(1.34472 0.890569 -0.00576664)
(-0.062575 1.53968 -0.007967)
(0.313944 2.67645 -0.0142226)
(0.308223 2.62747 -0.0139716)
(0.0423274 0.156837 -0.000831486)
(0.0465851 0.172691 -0.000920702)
(0.054316 0.221903 -0.00145171)
(0.0513971 0.190609 -0.00102106)
(0.0589558 0.240993 -0.000964702)
(0.048022 0.17804 -0.000950438)
(0.0804497 0.351683 -0.00183507)
(0.0583823 0.267504 -0.00139116)
(0.0856464 0.374619 -0.001964)
(0.0536837 0.245734 -0.00126903)
(-0.0577039 1.42047 -0.00735388)
(-0.0599437 1.47537 -0.00763478)
(1.32361 0.876551 -0.00567273)
(0.0516939 0.775085 -0.00408901)
(-0.00220174 1.22631 -0.00639068)
(-0.00231139 1.2812 -0.00667315)
(0.0539955 0.809743 -0.00426967)
(-0.00234483 1.29741 -0.00675744)
(0.0564963 0.847433 -0.00446592)
(0.0547856 0.821646 -0.00433036)
(-0.00241804 1.33249 -0.00694151)
(-0.060615 1.49179 -0.00771984)
(1.32893 0.880079 -0.00569468)
(-0.0620991 1.52809 -0.00790975)
(0.0756621 0.296525 -0.00167091)
(0.0756859 0.296489 -0.00167152)
(0.0558098 0.203943 -0.00117052)
(0.0561391 0.205282 -0.00118004)
(0.0764227 0.299681 -0.00168744)
(0.239742 1.13086 -0.00619028)
(0.402342 1.97013 -0.0107572)
(0.225333 1.0168 -0.0055917)
(0.174699 0.756215 -0.0041929)
(0.175788 0.76109 -0.00421514)
(0.23253 1.04982 -0.00576523)
(0.410167 2.00878 -0.010934)
(0.251171 1.18523 -0.00647587)
(0.0768073 0.300648 -0.00169057)
(0.0764795 0.299415 -0.00168515)
(0.0756433 0.296276 -0.00167017)
(0.055821 0.203938 -0.00116981)
(0.0571474 0.208653 -0.00119069)
(0.261124 1.74129 -0.0093444)
(0.41617 2.598 -0.0139708)
(0.273768 1.61911 -0.00872374)
(0.280293 1.65784 -0.00892947)
(0.446479 2.78765 -0.0149627)
(0.436884 2.7277 -0.014652)
(0.267781 1.78582 -0.00956769)
(-0.00304355 -0.0192894 0.000133949)
(-0.0276554 -0.163186 0.000906315)
(0.049851 0.243612 -0.00124486)
(0.00482364 0.0230506 -8.80646e-05)
(-0.0300339 -0.176959 0.000982924)
(-0.0105254 -0.0599992 0.000359623)
(-0.0665813 -0.442237 0.00241728)
(-0.0545704 -0.339728 0.00186792)
(-0.0668478 -0.486174 0.00262885)
(-0.0528565 -0.329124 0.00180497)
(-0.0627433 -0.416826 0.0022671)
(0.457497 2.85664 -0.0153219)
(0.466496 2.91299 -0.0156115)
(0.290686 1.93908 -0.01036)
(0.284922 1.90052 -0.0101611)
(-0.0221258 -0.123276 0.000718314)
(-0.0393201 -0.230785 0.00128711)
(0.0432912 0.210989 -0.00106334)
(0.001577 0.00586172 7.28969e-06)
(0.0371465 0.180411 -0.000893617)
(-0.0369909 -0.217257 0.00120916)
(-0.0134841 -0.0761007 0.000449454)
(0.0294338 0.106352 -0.000615835)
(0.0298674 0.108005 -0.000626615)
(0.0294169 0.106263 -0.000614755)
(0.0302279 0.109113 -0.000627042)
(0.118119 0.345968 -0.00183662)
(0.143927 0.421778 -0.00227393)
(0.19132 0.443971 -0.00245741)
(0.186047 0.431722 -0.00238809)
(0.158824 0.368498 -0.00202646)
(0.166938 0.387352 -0.00213781)
(0.150887 0.442229 -0.00239098)
(-0.59856 1.94868 -0.00963593)
(1.30957 0.867211 -0.0056019)
(-0.0563003 1.38619 -0.00717411)
(-0.168032 1.56083 -0.00798829)
(-0.571255 1.85996 -0.00925771)
(-0.502104 1.63423 -0.00798639)
(-0.520045 1.69297 -0.00837828)
(-0.145402 1.35136 -0.00691342)
(-0.0504856 1.24382 -0.00643209)
(1.29241 0.85581 -0.0055035)
(-0.554158 1.80444 -0.00892834)
(0.0866758 0.316255 -0.00170738)
(0.0798903 0.291476 -0.00158992)
(0.139196 0.131159 -0.000806732)
(0.398027 -0.165213 0.000544157)
(0.384209 -0.159475 0.000523798)
(0.152739 0.143932 -0.000879196)
(0.0535073 0.187243 -0.00100137)
(0.0500055 0.18041 -0.000972005)
(0.0455416 0.16428 -0.000895265)
(0.0402924 0.14091 -0.000772862)
(0.183099 0.172558 -0.00104673)
(0.414855 -0.172188 0.00055808)
(0.432431 -0.179446 0.000574087)
(0.168172 0.158488 -0.000962299)
(0.654965 3.21226 -0.00756957)
(0.243466 1.05595 -0.00248544)
(0.254006 1.10179 -0.00303792)
(0.673135 3.30159 -0.00903773)
(0.191351 0.830215 -0.0034577)
(0.6806 3.33772 -0.0132784)
(0.219705 0.952837 -0.00383636)
(0.637152 3.12449 -0.0129884)
(0.245481 1.06502 -0.00529057)
(0.629366 3.08628 -0.0150001)
(0.225911 0.979996 -0.00477229)
(0.603172 2.95793 -0.0146894)
(-0.0679054 -0.549022 0.00116404)
(-0.0347113 -0.254342 0.000573465)
(-0.0488826 -0.356516 0.00186404)
(-0.0610358 -0.444235 0.00238801)
(-0.09952 -0.801304 0.00428725)
(-0.0527914 -0.519333 0.00185609)
(-0.00531646 -0.160742 0.000612457)
(-0.00530279 -0.160318 0.000563075)
(3.52292e-05 -0.0160577 6.29703e-05)
(7.61329e-05 -0.0130458 4.29518e-05)
(-0.00271591 -0.0200307 4.92338e-05)
(-0.0680818 -0.550362 0.00148924)
(-0.00291488 -0.0212571 5.97872e-05)
(-0.0692454 -0.559575 0.00200955)
(-0.00488612 -0.0334067 0.000132548)