/*--------------------------------*- C++ -*----------------------------------*\
| =========                 |                                                 |
| \\      /  F ield         | OpenFOAM: The Open Source CFD Toolbox           |
|  \\    /   O peration     | Version:  2306                                  |
|   \\  /    A nd           | Website:  www.openfoam.com                      |
|    \\/     M anipulation  |                                                 |
\*---------------------------------------------------------------------------*/
FoamFile
{
    version     2.0;
    format      ascii;
    arch        "LSB;label=32;scalar=64";
    class       volScalarField;
    location    "0.4";
    object      p;
}
// * * * * * * * * * * * * * * * * * * * * * * * * * * * * * * * * * * * * * //

dimensions      [0 2 -2 0 0 0 0];

internalField   nonuniform List<scalar> 
111542
(
61.3093
62.6423
65.8168
70.9907
78.2247
87.7106
99.585
113.853
129.998
146.577
161.033
169.382
167.653
154.784
133.955
110.918
89.595
71.3824
56.3287
44.2267
34.6695
27.3334
21.8285
17.6453
14.4598
12.0113
10.0311
8.49088
7.34255
6.46028
5.7624
5.19335
4.76524
4.40674
4.06485
3.69612
3.24557
2.70666
1.97695
0.962825
60.1669
61.4586
64.598
69.7068
76.9271
86.5555
98.9408
114.309
132.469
152.327
171.166
183.493
181.779
164.884
138.754
112.038
88.7994
69.5961
54.1143
41.9405
32.5971
25.5689
20.3152
16.4397
13.5201
11.2495
9.46651
8.08955
7.03126
6.20067
5.53583
4.99797
4.56272
4.18954
3.83764
3.46784
3.03518
2.49287
1.76926
0.805908
57.9078
59.1299
62.122
67.0408
74.1395
83.9084
97.0366
114.307
136.356
162.997
190.866
211.354
210.442
184.347
147.976
115.013
88.1455
66.926
50.5617
38.2001
29.069
22.684
18.1096
14.707
11.8983
9.60219
7.86465
6.59708
5.66085
4.95599
4.42269
4.01888
3.70822
3.45565
3.2241
2.97468
2.66059
2.22264
1.58505
0.670029
54.5949
55.6868
58.3777
62.8718
69.5365
79.0816
92.6361
111.875
139.182
177.764
212.302
253.932
258.436
216.737
164.393
124.332
91.8909
67.2978
49.3073
36.2486
23.0709
17.1574
14.7736
13.3144
11.2978
9.23731
7.59859
6.36264
5.39636
4.62619
4.01792
3.54143
3.16637
2.86129
2.59602
2.33668
2.03551
1.6255
1.00478
0.0397277
50.3538
51.233
53.4169
57.1287
62.7939
71.2451
83.9148
103.212
133.151
177.618
253.909
338.883
360.783
251.617
167.444
120.156
81.6193
55.5328
38.3104
27.2459
19.9596
7.06677
5.97235
6.15368
5.32988
4.43988
3.82535
3.37642
3.00901
2.71261
2.48596
2.31627
2.189
2.08649
1.99402
1.89264
1.74749
1.49769
1.009
-0.0560699
45.3993
45.9761
47.4243
49.9306
53.8633
59.9532
69.5298
85.0525
111.3
165.866
259.199
452.858
614.255
238.221
166.629
111.881
65.7136
39.8241
24.5819
15.4125
10.3677
14.9045
13.5986
8.4136
4.99221
3.4018
2.56277
1.9603
1.49854
1.16942
0.947243
0.799916
0.704813
0.646122
0.612379
0.592104
0.570139
0.532917
0.485234
0.555504
40.0452
40.2433
40.7669
41.7033
43.2312
45.6936
49.6863
56.218
67.0357
106.606
182.703
414.113
1944.43
-434.857
198.758
79.0301
31.3506
15.9791
7.52073
-2.64984
-10.1554
16.0013
15.5014
9.57366
5.9628
4.47801
3.72821
3.15307
2.69062
2.35037
2.10927
1.9352
1.8079
1.71349
1.6432
1.58998
1.54042
1.49042
1.45098
1.5124
34.6974
34.4799
33.9959
33.2016
32.0301
30.3199
27.6862
23.2127
14.565
17.1629
0.957913
-158.41
-995.511
-1050.66
-316.973
-102.263
-46.3314
-25.77
-16.6375
-10.3437
-2.32679
-8.1442
-6.12254
-4.44138
-3.55857
-2.64824
-1.76183
-1.05825
-0.526299
-0.104431
0.243805
0.534272
0.777516
0.980595
1.14755
1.27709
1.35432
1.34913
1.1967
0.765361
29.7301
29.1684
27.7379
25.3203
21.66
16.2154
7.98688
-4.89074
-26.0102
-48.9631
-122.186
-266.34
-476.832
-507.251
-321.848
-175.844
-100.518
-60.9218
-38.8119
-24.8142
-14.7125
-8.18957
-4.07714
-1.22704
0.402703
1.37276
2.04523
2.51133
2.81159
2.99707
3.10892
3.17072
3.19437
3.18473
3.14028
3.05304
2.89857
2.62837
2.14747
1.2638
25.6507
24.7615
22.5545
18.837
13.2436
5.06663
-6.87676
-24.5316
-51.1585
-92.3573
-150.05
-222.742
-288.209
-296.497
-238.789
-165.302
-109.656
-73.978
-50.9028
-34.947
-23.6581
-16.1633
-11.2142
-7.73163
-5.28356
-3.54137
-2.22926
-1.20826
-0.413864
0.204587
0.691424
1.07823
1.38339
1.61561
1.77361
1.85017
1.82174
1.64553
1.26114
0.621043
22.734
21.6204
18.878
14.2855
7.43783
-2.37163
-16.2245
-35.5892
-62.3109
-98.239
-143.335
-192.419
-230.814
-237.765
-207.105
-157.988
-113.343
-80.8092
-58.0296
-41.4749
-29.1942
-20.2286
-13.699
-8.92901
-5.45592
-2.93981
-1.10466
0.244386
1.23356
1.95218
2.46872
2.83324
3.07849
3.22205
3.26174
3.20707
3.0337
2.6946
2.11768
1.17497
21.2164
20.0007
16.9733
11.9658
4.49986
-6.03744
-20.6412
-40.4311
-66.5418
-99.3105
-137.228
-174.904
-202.419
-208.242
-188.242
-151.995
-114.337
-83.8223
-61.2083
-44.3783
-31.6916
-22.2352
-15.3232
-10.3167
-6.73617
-4.15968
-2.28733
-0.911557
0.107639
0.865357
1.4294
1.84758
2.15237
2.36584
2.43241
2.42616
2.30445
2.0164
1.51249
0.7428
60.7899
62.0752
65.1879
70.2154
77.2328
86.4221
97.949
111.771
127.37
143.387
157.348
165.333
163.41
150.734
130.39
107.932
87.2233
69.5437
54.9382
43.17
33.904
26.7611
21.3426
17.2514
14.1266
11.6853
9.7526
8.2541
7.117
6.24897
5.57667
5.05023
4.63786
4.29391
3.97434
3.63761
3.23838
2.72799
2.02663
1.03403
59.6566
60.9147
63.9722
68.935
75.9404
85.2748
97.2778
112.159
129.737
148.973
167.214
179.24
177.138
160.487
134.98
108.989
86.429
67.8001
52.78
40.9605
31.8817
24.9967
19.817
16.0082
13.1423
10.9051
9.15442
7.80683
6.77317
5.96912
5.33436
4.82835
4.41938
4.07144
3.74848
3.41259
3.02088
2.51871
1.83432
0.88917
57.4212
58.6122
61.5196
66.2928
73.1743
82.6374
95.3493
112.072
133.436
159.284
186.326
206.056
205.229
179.603
144.048
111.948
85.8431
65.2507
49.369
37.371
28.5238
22.1973
17.5962
14.1945
11.4206
9.17803
7.50007
6.29165
5.41054
4.75512
4.26539
3.89892
3.61963
3.39375
3.18863
2.96851
2.69052
2.2941
1.69457
0.778914
54.1455
55.2081
57.8179
62.1711
68.6221
77.8582
90.9771
109.617
136.132
173.724
208.713
249.6
253.907
212.542
161.177
121.884
90.0731
65.9779
48.3476
35.5421
22.2789
16.3198
14.0171
12.5894
10.5832
8.57368
7.01837
5.87259
4.98935
4.29091
3.74271
3.31516
2.9808
2.71149
2.48147
2.26179
2.01118
1.66321
1.10634
0.158329
49.955
50.8077
52.9198
56.5053
61.976
70.1422
82.403
101.126
130.286
174.763
250.088
334.029
355.364
247.019
164.503
118.161
80.2688
54.6044
37.5843
26.5593
19.0049
4.52437
4.163
4.89683
4.33358
3.61943
3.1604
2.84211
2.5751
2.35117
2.17371
2.03436
1.92509
1.83466
1.75422
1.6738
1.56915
1.38482
0.983025
-0.0136122
45.0638
45.6187
47.0099
49.4156
53.1942
59.0598
68.3192
83.4062
109.079
163.584
256.641
448.958
609.19
234.265
163.59
111.502
65.5184
39.6711
24.3437
14.948
6.50388
10.9901
10.9604
6.84489
4.05393
2.83796
2.2245
1.75049
1.35189
1.04407
0.819705
0.659311
0.550594
0.483643
0.452574
0.452983
0.479611
0.528454
0.604858
0.774554
39.7762
39.9664
40.4525
41.3223
42.7538
45.0852
48.9092
55.2464
65.8944
105.452
181.609
413.548
1929.28
180.618
79.8072
31.5292
15.8032
7.20286
-3.1604
-6.4737
15.7961
15.2215
9.36321
5.81278
4.32807
3.52326
2.86739
2.31914
1.89753
1.58513
1.35349
1.18557
1.0676
0.993373
0.958899
0.960448
1.00034
1.09627
1.32455
34.4901
34.2854
33.7863
32.9651
31.7635
30.029
27.397
23.0003
14.6096
17.3403
1.72971
-155.159
-982.588
-1033.61
-310.845
-100.599
-45.4692
-25.5129
-16.7604
-10.6321
-1.97585
-7.61123
-5.96601
-4.46953
-3.55106
-2.60512
-1.73642
-1.07486
-0.587908
-0.208533
0.10176
0.361104
0.582258
0.772475
0.93893
1.08416
1.19984
1.25972
1.19665
0.841643
29.62
29.0503
27.6233
25.2188
21.5903
16.2167
8.13575
-4.45508
-25.0487
-47.841
-119.67
-261.917
-470.026
-497.535
-315.856
-172.179
-98.2821
-59.7282
-38.2676
-24.6401
-14.6885
-8.4136
-4.50603
-1.67703
0.0473102
1.08691
1.77477
2.22405
2.49301
2.64103
2.71497
2.74301
2.74037
2.7141
2.66557
2.58998
2.4668
2.25085
1.85102
1.0861
25.59
24.7062
22.5245
18.8501
13.3341
5.29695
-6.40472
-23.6535
-49.6209
-89.8026
-146.104
-217.101
-281.239
-288.91
-232.222
-160.57
-106.642
-72.2392
-49.9996
-34.5793
-23.6406
-16.3659
-11.4902
-7.99788
-5.52396
-3.76908
-2.45829
-1.44735
-0.66844
-0.0684909
0.399602
0.76959
1.06178
1.28635
1.44504
1.53227
1.52719
1.38961
1.06242
0.50302
22.7174
21.6173
18.9087
14.3751
7.63725
-1.99453
-15.563
-34.4899
-60.5607
-95.5801
-139.505
-187.27
-224.615
-231.359
-201.341
-153.591
-110.34
-78.9218
-56.9281
-40.911
-29.0008
-20.2819
-13.8846
-9.18901
-5.75637
-3.26044
-1.43546
-0.0943871
0.884725
1.5904
2.09241
2.44238
2.67462
2.80904
2.85188
2.80422
2.6469
2.33877
1.81516
0.970784
21.2267
20.0165
17.04
12.0818
4.75559
-5.59385
-19.8992
-39.2546
-64.7124
-96.667
-133.594
-170.236
-196.961
-202.637
-183.18
-147.861
-111.324
-81.835
-59.9857
-43.7005
-31.3893
-22.19
-15.444
-10.5505
-7.01401
-4.45513
-2.59232
-1.2232
-0.210505
0.539606
1.09486
1.50344
1.79714
1.99239
2.0862
2.08771
1.97587
1.71187
1.2537
0.576458
59.7919
61.0085
63.956
68.6978
75.3005
83.9288
94.7312
107.645
122.172
137.043
149.89
157.059
154.906
142.643
123.241
101.968
82.4318
65.7768
52.0203
40.9248
32.1778
25.3984
20.2214
16.3172
13.3436
11.0177
9.17827
7.73974
6.6296
5.77285
5.10542
4.58052
4.16197
3.81544
3.50538
3.19392
2.83876
2.38794
1.77433
0.915748
58.6806
59.872
62.7605
67.4357
74.0201
82.7745
94.0074
107.902
124.28
142.166
159.088
169.973
167.745
151.722
127.467
102.91
81.6543
64.1142
49.9723
38.8403
30.2826
23.7173
18.7652
15.1656
12.4748
10.3506
8.65596
7.32335
6.28109
5.46031
4.80862
4.28851
3.86878
3.51903
3.20844
2.90296
2.56247
2.13435
1.55207
0.748456
56.4913
57.6171
60.3559
64.8412
71.2936
80.1488
92.0241
107.63
127.57
151.726
177.027
195.52
194.239
169.642
135.95
105.675
81.0657
61.6711
46.7271
35.47
27.2765
21.2371
16.7863
13.5653
10.9824
8.87106
7.24655
6.03632
5.12367
4.4238
3.88742
3.47896
3.16645
2.92191
2.71718
2.52247
2.29894
1.98972
1.50665
0.718017
53.2873
54.2879
56.7364
60.8108
66.8377
75.4561
87.6921
105.094
129.92
165.299
199.813
238.874
242.643
202.551
153.488
116.071
85.6716
62.7162
45.9517
33.8024
21.0368
15.7773
13.7203
12.2445
10.0828
7.90322
6.1924
4.91893
3.9424
3.18387
2.60276
2.16459
1.83785
1.59422
1.41046
1.26404
1.12247
0.928982
0.577839
-0.115586
49.1945
49.9906
51.959
55.2936
60.377
67.9682
79.3887
96.896
124.336
167.728
240.32
321.436
341.796
236.348
158.017
113.402
76.5846
51.8363
35.4779
24.9074
18.2023
4.55163
5.0937
6.02235
5.19023
4.06499
3.2203
2.57573
2.04394
1.6153
1.28811
1.04921
0.885348
0.779771
0.723431
0.709416
0.727012
0.73921
0.626297
-0.0188123
44.4282
44.933
46.2097
48.4156
51.8852
57.2936
65.8895
80.0204
104.349
157.696
249.021
437.712
594.311
224.926
161.062
109.004
63.4229
37.9565
22.9115
13.7769
9.74041
8.28194
7.60636
3.14401
-0.00177127
-1.47001
-2.13212
-2.49926
-2.71449
-2.81454
-2.83321
-2.80545
-2.73708
-2.6383
-2.50485
-2.32465
-2.074
-1.71271
-1.1555
-0.144948
39.2663
39.4362
39.8468
40.5849
41.8221
43.8828
47.341
53.2221
63.3907
102.37
178.097
410.141
1909.77
195.851
78.3839
30.7254
15.1027
6.16032
-3.78261
-7.93292
12.5672
11.165
5.25527
1.98799
0.808663
0.291503
-0.0915442
-0.399284
-0.625521
-0.785919
-0.900171
-0.975141
-1.00895
-0.993274
-0.913933
-0.746974
-0.456696
0.024182
0.805711
34.1244
33.9132
33.3832
32.5112
31.2487
29.4578
26.8126
22.5383
14.6212
17.6791
3.66734
-147.245
-965.162
-1015.09
-297.096
-94.2408
-42.7274
-24.696
-16.9025
-11.2748
-4.07161
-8.54651
-7.96906
-7.00636
-6.02504
-4.86982
-3.79096
-2.92175
-2.23706
-1.68494
-1.23092
-0.855012
-0.540497
-0.273436
-0.0308026
0.203356
0.441885
0.678894
0.861363
0.781401
29.3931
28.8269
27.4114
25.034
21.4686
16.2334
8.43877
-3.58645
-23.1045
-45.0105
-113.471
-250.409
-452.137
-478.534
-301.545
-163.092
-93.1209
-57.1307
-37.1641
-24.3761
-15.0162
-9.49749
-6.02037
-3.3497
-1.60095
-0.480409
0.30751
0.868178
1.24824
1.49592
1.65539
1.75527
1.81432
1.84364
1.85575
1.85456
1.83179
1.75439
1.53566
0.97045
25.4771
24.6092
22.4734
18.8865
13.5277
5.76786
-5.45473
-21.892
-46.5166
-84.5361
-137.813
-205.125
-266.172
-273.393
-219.339
-151.491
-100.916
-68.9005
-48.1999
-33.7815
-23.5625
-16.8957
-12.1635
-8.73188
-6.34167
-4.64375
-3.3383
-2.2946
-1.46378
-0.805273
-0.277841
0.148493
0.493784
0.767031
0.977174
1.12308
1.19103
1.14752
0.933942
0.476167
22.6914
21.6125
18.9726
14.5659
8.04525
-1.23143
-14.2306
-32.2734
-57.0225
-90.1689
-131.679
-176.804
-212.128
-218.503
-190.077
-145.024
-104.459
-75.137
-54.6077
-39.6052
-28.4184
-20.2079
-14.0819
-9.56658
-6.28137
-3.88702
-2.11253
-0.784082
0.204793
0.932383
1.46262
1.84372
2.109
2.27841
2.36346
2.36441
2.2671
2.03698
1.61148
0.873765
21.2369
20.0591
17.1634
12.3477
5.26771
-4.69397
-18.3957
-36.8529
-61.0288
-91.2876
-126.173
-160.738
-185.931
-191.295
-172.967
-139.734
-105.461
-77.8868
-57.4525
-42.1786
-30.592
-21.9018
-15.4837
-10.7899
-7.37826
-4.90411
-3.09429
-1.74966
-0.740052
0.0210406
0.595761
1.02894
1.35047
1.57649
1.71323
1.75783
1.69584
1.49653
1.11825
0.518453
58.3848
59.5024
62.2037
66.5358
72.5452
80.3642
90.1054
101.684
114.622
127.756
138.922
144.838
142.37
130.769
112.824
93.3413
75.5302
60.3658
47.8376
37.7164
29.7047
23.4225
18.5286
14.7773
11.9225
9.71962
8.00255
6.67361
5.65653
4.87837
4.27793
3.81061
3.44199
3.14163
2.87938
2.62395
2.33965
1.98188
1.49381
0.80563
57.3049
58.3977
61.0394
65.3005
71.2786
79.1917
89.2952
101.726
116.298
132.112
146.955
156.048
153.591
138.605
116.336
93.9833
74.682
58.7537
45.9065
35.7823
27.9595
21.768
16.9517
13.4456
10.8882
8.9155
7.35882
6.14358
5.20345
4.47275
3.89977
3.44788
3.08828
2.79432
2.54098
2.30168
2.04426
1.72489
1.2847
0.657311
55.1806
56.2092
58.7031
62.7724
68.6032
76.5703
87.2064
101.125
118.851
140.275
162.627
178.921
176.932
154.107
123.475
96.1087
73.842
56.2986
42.7936
32.6506
25.337
19.3348
14.5128
11.2334
8.92022
7.14761
5.8001
4.80015
4.05143
3.47987
3.04209
2.70832
2.45398
2.25694
2.10034
1.96522
1.82634
1.63873
1.31934
0.708138
52.0776
52.9856
55.1994
58.8693
64.2777
71.9829
82.8876
98.3647
120.452
152.031
184.922
220.463
223.154
185.491
140.6
106.495
78.4687
57.3988
42.0622
30.9666
18.7275
13.0878
10.3674
8.81427
7.10137
5.45769
4.17126
3.21108
2.47026
1.88726
1.43235
1.0867
0.828125
0.636722
0.506761
0.430963
0.399131
0.378162
0.280402
-0.121843
48.122
48.8364
50.5943
53.5621
58.0746
64.8028
74.925
90.4693
114.96
155.77
222.754
298.182
316.202
216.177
145.924
104.998
69.9583
46.7352
31.5098
21.5364
14.2911
-3.88299
-1.74501
1.01825
1.36717
0.99278
0.637985
0.31325
-0.0122331
-0.315714
-0.577753
-0.782634
-0.935287
-1.03661
-1.07363
-1.03144
-0.88886
-0.637913
-0.343941
-0.386167
43.5244
43.9659
45.0741
46.9848
49.9934
54.703
62.236
74.7392
96.5587
146.987
234.071
414.781
563.335
203.047
157.957
104.678
58.3137
33.1095
18.6354
9.57378
1.79056
-3.87986
-0.748116
-1.00084
-2.21764
-3.00187
-3.46221
-3.83383
-4.15659
-4.4071
-4.57874
-4.69354
-4.73773
-4.71975
-4.6238
-4.4178
-4.0427
-3.3893
-2.26458
-0.373467
38.5642
38.6859
38.9853
39.5313
40.4761
42.1092
44.9518
49.9754
59.0219
96.2107
169.981
399.926
1869.85
220.251
81.6422
27.8915
10.2202
1.54379
-8.08251
-13.923
14.1349
11.3805
4.51668
0.548937
-1.35635
-2.49186
-3.32653
-3.94921
-4.38882
-4.68484
-4.86676
-4.95945
-4.97647
-4.89615
-4.69199
-4.30652
-3.63761
-2.51444
-0.721475
33.6135
33.3892
32.814
31.8676
30.5084
28.6111
25.8937
21.6948
14.3047
17.5929
5.99706
-133.036
-915.359
-967.092
-277.4
-84.5028
-39.4142
-24.5929
-18.106
-12.7314
-3.46446
-6.3539
-6.38799
-6.08343
-5.52163
-4.77343
-4.05896
-3.48113
-3.02867
-2.66621
-2.36789
-2.10582
-1.88721
-1.68828
-1.47519
-1.21983
-0.886213
-0.439219
0.111864
0.529183
29.0789
28.5172
27.1188
24.7795
21.2996
16.2508
8.8455
-2.38978
-20.3382
-40.6091
-103.416
-230.168
-418.798
-443.477
-277.016
-148.843
-85.7058
-53.7181
-35.9177
-24.3238
-15.6103
-10.9359
-6.80958
-3.75528
-2.09757
-1.23652
-0.695176
-0.334354
-0.113299
0.0118997
0.083334
0.128009
0.157448
0.18548
0.227731
0.294433
0.390029
0.503647
0.571948
0.41655
25.3219
24.4792
22.4099
18.9509
13.8186
6.45401
-4.08456
-19.3482
-41.9802
-76.6488
-125.089
-186.29
-241.868
-248.457
-199.383
-138.025
-92.6923
-64.14
-45.6196
-32.65
-23.4848
-17.5696
-12.5062
-8.79479
-6.43708
-4.88144
-3.70909
-2.7761
-2.04038
-1.46242
-1.0004
-0.623556
-0.313964
-0.0593472
0.1533
0.326854
0.455511
0.517278
0.461944
0.216083
22.6474
21.61
19.071
14.8504
8.64304
-0.12198
-12.3013
-29.0581
-51.8558
-82.1819
-119.974
-160.94
-193.004
-198.814
-173.091
-132.441
-96.0001
-69.7069
-51.2365
-37.667
-27.5177
-20.0154
-14.1646
-9.75294
-6.57594
-4.30317
-2.63926
-1.40507
-0.496642
0.163057
0.63814
0.977404
1.21437
1.37055
1.46072
1.48758
1.4413
1.29574
1.00131
0.480338
21.2615
20.1239
17.346
12.7454
6.01938
-3.38184
-16.2181
-33.374
-55.68
-83.4183
-115.229
-146.627
-169.465
-174.348
-157.826
-127.901
-97.0643
-72.245
-53.7971
-39.9422
-29.3824
-21.4088
-15.4159
-10.9199
-7.60992
-5.21722
-3.48141
-2.20047
-1.24485
-0.530192
0.0047954
0.405465
0.702539
0.914687
1.05133
1.11171
1.08419
0.945427
0.663897
0.224256
56.6654
57.6591
60.054
63.8781
69.152
75.964
84.3757
94.267
105.174
116.049
125.018
129.291
126.381
115.696
99.7284
82.5959
66.9848
53.6862
42.6745
33.7524
26.6769
21.1267
16.7672
13.3517
10.7045
8.64921
7.04436
5.79791
4.83998
4.0995
3.52314
3.07327
2.7201
2.43843
2.20311
1.99036
1.7699
1.50738
1.15891
0.66733
55.6241
56.5932
58.9277
62.6753
67.9001
74.7623
83.442
94.0031
106.222
119.274
131.3
137.956
135.058
121.567
102.073
82.6716
65.9117
52.0418
40.8258
31.9794
25.186
19.8339
15.5991
12.3495
9.88466
7.9602
6.43293
5.23412
4.31175
3.59342
3.0306
2.58985
2.24587
1.97404
1.75634
1.57064
1.39385
1.19321
0.924003
0.522946
53.5795
54.486
56.6747
60.2269
65.2818
72.1311
81.1849
92.902
107.645
125.229
143.251
156.06
153.192
133.076
106.805
83.4356
64.3605
49.2916
37.6723
29.0478
23.2776
18.3693
13.7928
10.4495
8.14283
6.42492
5.10144
4.09058
3.31358
2.71796
2.26007
1.91029
1.64964
1.45763
1.3231
1.23448
1.18066
1.13374
1.02967
0.692883
50.6003
51.3916
53.3121
56.4772
61.1081
67.6501
76.8203
89.7032
107.911
133.738
163.358
192.925
193.914
160.441
121.921
92.6106
68.241
50.0371
36.8269
27.5043
18.9907
16.6001
11.5353
7.73427
5.14942
3.26398
1.8928
0.919781
0.216079
-0.30704
-0.696575
-0.975308
-1.16085
-1.27463
-1.3135
-1.26929
-1.13002
-0.889955
-0.577175
-0.371486
46.8121
47.4243
48.9186
51.4253
55.2135
60.8249
69.2074
81.9969
102.06
138.14
194.822
259.269
272.893
183.579
125.959
90.4569
59.3139
39.1936
26.2361
18.2653
15.5395
8.1252
5.82836
3.98435
2.16859
0.655135
-0.499609
-1.36721
-2.02847
-2.5439
-2.94265
-3.22483
-3.41075
-3.51956
-3.53256
-3.41297
-3.11158
-2.54602
-1.65168
-0.716442
42.4202
42.7835
43.6797
45.2167
47.6338
51.4179
57.4744
67.5595
85.2662
129.795
207.556
370.467
503.924
163.681
146.44
94.0163
48.5383
25.3221
12.8094
5.30952
-2.35698
-30.9981
-28.2891
-26.3099
-25.3474
-24.3267
-23.3077
-22.4606
-21.7665
-21.1431
-20.5523
-19.9985
-19.4456
-18.8567
-18.2014
-17.4204
-16.3931
-14.8653
-12.2556
-7.06763
37.7082
37.7662
37.9254
38.228
38.7922
39.842
41.7909
45.4285
52.3121
85.2526
152.753
372.396
1791.01
270.591
75.5388
16.407
-0.96695
-8.20174
-13.6314
-17.7802
-1.75476
-4.79061
-9.40298
-11.7423
-12.7197
-13.2317
-13.5797
-13.8003
-13.8915
-13.8785
-13.8017
-13.6297
-13.3713
-13.0088
-12.4823
-11.6782
-10.3576
-8.05001
-3.95357
32.9887
32.7477
32.1151
31.0732
29.5802
27.5179
24.6345
20.3684
13.3328
16.201
6.96052
-114.128
-819.583
-865.303
-242.225
-75.521
-39.9947
-28.3404
-22.638
-17.2968
-11.4053
-21.2034
-17.6547
-13.799
-11.5158
-9.9753
-8.81796
-7.96518
-7.34372
-6.87859
-6.51731
-6.21527
-5.95685
-5.709
-5.43034
-5.06825
-4.54839
-3.75201
-2.53658
-0.910649
28.6938
28.1406
26.7611
24.4658
21.0829
16.2462
9.28909
-1.01137
-17.0338
-35.003
-89.5395
-199.55
-364.203
-384.665
-239.494
-130.02
-77.0142
-50.1191
-34.9019
-25.0963
-19.2493
-18.4872
-12.4127
-7.42014
-4.88073
-3.58361
-2.74751
-2.16879
-1.78701
-1.54093
-1.37666
-1.26123
-1.17525
-1.09154
-0.988703
-0.842415
-0.624041
-0.306993
0.090084
0.349776
25.1326
24.3209
22.3345
19.0315
14.1754
7.29235
-2.40718
-16.209
-36.2947
-66.5085
-108.177
-160.351
-207.373
-213.127
-172.052
-120.595
-82.4712
-58.2663
-42.379
-31.2324
-23.6307
-19.2672
-14.2938
-10.2648
-7.65793
-5.91754
-4.59468
-3.54252
-2.71681
-2.07273
-1.56436
-1.15603
-0.828072
-0.55651
-0.325169
-0.121257
0.0620837
0.218841
0.308174
0.209239
22.5975
21.6083
19.1954
15.2051
9.38457
1.25253
-9.90706
-25.0508
-45.3598
-71.9992
-104.785
-139.939
-167.347
-172.364
-150.67
-116.365
-85.4478
-62.9198
-46.9119
-35.066
-26.2312
-19.7769
-14.6019
-10.4565
-7.34153
-5.06171
-3.36642
-2.08958
-1.13339
-0.425223
0.096238
0.478324
0.754396
0.949304
1.07964
1.15321
1.16721
1.10269
0.912372
0.485892
21.2867
20.2039
17.5721
13.2371
6.94781
-1.75784
-13.512
-29.0343
-48.9689
-73.4627
-101.247
-128.421
-148.067
-152.294
-138.273
-112.876
-86.5523
-65.1778
-49.131
-36.9796
-27.6764
-20.6404
-15.3001
-11.1601
-8.00555
-5.66722
-3.93664
-2.63513
-1.64561
-0.891884
-0.317919
0.118947
0.448926
0.692246
0.860252
0.956081
0.97235
0.889409
0.673795
0.274192
54.751
55.6062
57.657
60.9118
65.3626
71.0474
77.9679
85.9583
94.5576
102.835
109.239
111.659
108.229
98.6603
85.0722
70.6966
57.6181
46.4326
37.095
29.4347
23.2561
18.3448
14.4929
11.4964
9.16755
7.34021
5.8996
4.77568
3.91671
3.24837
2.72593
2.31938
1.99951
1.74801
1.54042
1.36384
1.18673
0.988825
0.743983
0.444239
53.7529
54.5839
56.5735
59.7456
64.1269
69.8108
76.8873
85.3253
94.8302
104.6
112.972
117.062
113.543
101.911
85.849
69.9867
56.2159
44.7044
35.2669
27.6561
21.5835
16.8205
13.1132
10.2808
8.10305
6.38174
5.00324
3.90932
3.1107
2.47833
1.97867
1.5864
1.28171
1.03485
0.847075
0.696163
0.568885
0.445996
0.314934
0.180102
51.7967
52.5678
54.4141
57.3864
61.5713
67.1619
74.4194
83.5994
94.8225
107.721
120.369
128.234
124.365
107.775
86.9412
68.5752
53.497
41.3588
31.7638
24.2824
18.3501
14.0735
10.55
7.89956
5.90433
4.37197
3.20231
2.31555
1.59628
1.06777
0.675887
0.385686
0.179594
0.0466584
-0.0354843
-0.0663183
-0.0462264
0.0216225
0.117616
0.191331
48.9543
49.6183
51.2097
53.808
57.5638
62.7864
69.9597
79.7791
93.205
111.394
135.611
156.13
154.878
128.026
97.7711
74.5855
55.2896
40.7602
29.9992
22.0967
11.4394
8.75938
5.68805
3.23869
1.22337
-0.354339
-1.56031
-2.42073
-3.02816
-3.46125
-3.76676
-3.96453
-4.07353
-4.11349
-4.07719
-3.94388
-3.69147
-3.27007
-2.60343
-1.53178
45.3547
45.8522
47.0512
49.0402
52.0081
56.3375
62.6744
72.1046
86.4588
115.173
155.295
199.984
205.16
135.606
94.2464
67.113
43.2047
27.6905
17.5283
11.2314
9.70765
-1.92259
-3.33657
-4.87661
-6.33432
-7.33499
-8.23879
-8.88366
-9.22125
-9.41114
-9.51345
-9.54539
-9.49658
-9.37099
-9.18042
-8.85584
-8.32519
-7.44302
-5.97247
-3.58355
41.1943
41.467
42.1261
43.2428
44.9858
47.6894
51.9643
58.9664
70.9786
105.38
164.572
286.543
383.163
99.2132
108.262
55.0734
19.6
2.19672
-7.0554
-12.0331
-10.4775
-24.4287
-26.5291
-30.9099
-32.4324
-32.512
-31.895
-31.1314
-30.4121
-29.6571
-28.8574
-28.0157
-27.1724
-26.3156
-25.3791
-24.2966
-22.9236
-20.9166
-17.4727
-10.6208
36.7408
36.7432
36.7461
36.7733
36.8984
37.2575
38.0945
39.8672
43.4618
68.3254
119.982
300.662
1605.16
247.633
-17.316
-58.9334
-67.083
-68.3326
-66.6211
-61.8706
-35.9629
-35.2765
-37.238
-37.361
-36.4756
-35.3971
-34.378
-33.4068
-32.4345
-31.4588
-30.5096
-29.5548
-28.5511
-27.5094
-26.3335
-24.8658
-22.7316
-19.0506
-11.5069
32.3157
32.0346
31.3361
30.1858
28.5356
26.2656
23.1328
18.6415
11.6914
12.9374
4.73912
-88.7878
-655.795
-656.916
-193.836
-77.9761
-51.2166
-40.9127
-35.0965
-29.563
-26.434
-29.7903
-26.2384
-22.4065
-20.0446
-18.3874
-17.1262
-16.1585
-15.3953
-14.7659
-14.2214
-13.7321
-13.2869
-12.8102
-12.2925
-11.6813
-10.8759
-9.68894
-7.76698
-4.39147
28.2693
27.7216
26.3639
24.1167
20.8389
16.2264
9.74048
0.444307
-13.3277
-28.6398
-72.2579
-156.33
-279.763
-295.77
-188.826
-107.724
-67.2476
-45.7753
-33.1795
-25.0681
-22.5619
-18.1897
-14.7039
-11.6442
-9.71988
-8.45484
-7.50148
-6.7536
-6.16996
-5.71035
-5.33748
-5.02393
-4.75559
-4.50036
-4.23474
-3.92958
-3.54073
-3.00581
-2.24225
-1.16029
24.9254
24.1529
22.254
19.1246
14.5756
8.22561
-0.544594
-12.7089
-29.8592
-54.7658
-88.0681
-128.302
-163.413
-168.387
-138.336
-99.6127
-69.983
-50.507
-37.2876
-27.7725
-21.1433
-17.4636
-14.0557
-11.1365
-8.94116
-7.3048
-6.02706
-5.00765
-4.1961
-3.54845
-3.02561
-2.59598
-2.24032
-1.93357
-1.65844
-1.39977
-1.14639
-0.890327
-0.63463
-0.390611
22.5447
21.6088
19.3397
15.6087
10.2224
2.79956
-7.21629
-20.5402
-38.0005
-60.3254
-87.1155
-115.144
-136.702
-140.648
-124.126
-97.7323
-73.2776
-54.9078
-41.5021
-31.3862
-23.7212
-18.1117
-13.8103
-10.3992
-7.77089
-5.7893
-4.28793
-3.14011
-2.26113
-1.58952
-1.07593
-0.682577
-0.381594
-0.151442
0.022502
0.147979
0.223449
0.23697
0.164842
-0.016682
21.3163
20.2973
17.8312
13.7955
7.99763
0.0743731
-10.4622
-24.1405
-41.3779
-62.1392
-85.2336
-107.422
-123.237
-126.64
-115.671
-95.5911
-74.4634
-56.9127
-43.4333
-33.0461
-24.9857
-18.8412
-14.2062
-10.6532
-7.93044
-5.86667
-4.30517
-3.1141
-2.19945
-1.49575
-0.954276
-0.537057
-0.216595
0.0255692
0.200577
0.312299
0.354284
0.310439
0.162458
-0.0808139
52.7754
53.4854
55.1814
57.8504
61.4571
65.9917
71.3983
77.4708
83.7588
89.4591
93.3552
93.959
90.0824
81.7444
70.6162
59.0321
48.4913
39.4101
31.7359
25.3418
20.0976
15.8774
12.567
10.0429
8.0977
6.55417
5.32182
4.35301
3.60346
3.01996
2.56363
2.20697
1.92711
1.70459
1.52163
1.36138
1.20142
1.01953
0.790115
0.491596
51.8227
52.5088
54.1438
56.7248
60.2427
64.7268
70.1797
76.4805
83.2739
89.8064
94.7309
96.0411
91.844
82.1514
69.6562
57.4217
46.7174
37.6223
30.0097
23.7267
18.5891
14.4537
11.265
8.94999
7.20573
5.82162
4.71511
3.84081
3.16044
2.61945
2.1862
1.84005
1.56478
1.34391
1.16704
1.02202
0.893807
0.762662
0.602702
0.383207
49.9595
50.5872
52.0832
54.4621
57.7598
62.0736
67.5175
74.1488
81.8492
90.081
97.3481
100.447
95.2131
81.8584
66.4607
53.2377
42.3093
33.1367
25.5486
19.3446
14.249
10.2709
7.85458
6.18641
4.74626
3.55552
2.66037
2.0088
1.52551
1.17111
0.911944
0.725246
0.596876
0.514407
0.469058
0.460234
0.486149
0.535278
0.572666
0.490807
47.261
47.7872
49.0437
51.0655
53.9324
57.8204
62.9821
69.7288
78.3859
89.1388
100.11
107.186
99.8173
78.9993
60.0751
46.6087
35.7956
27.0682
20.0595
14.1007
7.89053
1.75513
1.99816
2.52546
1.97418
1.117
0.372528
-0.208807
-0.668122
-1.03278
-1.31396
-1.51773
-1.65053
-1.7207
-1.72408
-1.64515
-1.46636
-1.16227
-0.723027
-0.207716
43.8563
44.2322
45.1292
46.5954
48.7312
51.7626
56.0292
62.0381
70.4538
90.2418
110.631
129.766
122.352
80.6487
56.0593
42.0955
27.7238
17.497
10.5398
5.44856
0.199333
-13.8889
-11.0909
-8.16093
-6.87975
-6.20817
-5.7591
-5.42638
-5.17859
-5.00674
-4.88629
-4.7904
-4.70138
-4.60413
-4.46224
-4.22895
-3.84174
-3.20163
-2.21356
-0.958124
39.9367
40.1133
40.5297
41.2223
42.2829
43.8917
46.3522
50.1718
56.1495
77.7819
104.187
146.237
163.507
26.6625
20.2924
3.72837
-4.99668
-8.94457
-12.0669
-14.7244
-21.4507
-14.1094
-15.3742
-17.3599
-17.9748
-17.9114
-17.6017
-17.2206
-16.8153
-16.3808
-15.924
-15.4411
-14.9623
-14.4845
-13.9488
-13.2939
-12.4095
-11.0661
-8.83971
-5.05501
35.756
35.6964
35.5392
35.2885
34.9713
34.6318
34.3282
34.1382
34.1175
48.2298
59.7389
129.786
170.426
-692.272
-125.831
-85.5357
-60.991
-56.9165
-54.2485
-52.3952
-67.6699
-40.352
-38.2902
-36.1777
-34.22
-32.3175
-30.6191
-29.1539
-27.8624
-26.6912
-25.6162
-24.626
-23.7024
-22.7885
-21.8512
-20.8247
-19.5911
-17.867
-15.0319
-9.50502
31.6171
31.3076
30.5434
29.2853
27.4815
25.004
21.6018
16.803
9.68219
8.29562
-13.1265
-79.8967
-303.113
-259.028
-107.803
-57.3779
-35.003
-25.6468
-20.8569
-16.8414
-8.94802
6.09745
2.35171
-1.63265
-3.32775
-4.15027
-4.69122
-5.05904
-5.28829
-5.41578
-5.47355
-5.48884
-5.45887
-5.36113
-5.18215
-4.89934
-4.44661
-3.70041
-2.50264
-0.900436
27.8397
27.296
25.963
23.7711
20.6082
16.2268
10.1947
1.76502
-10.4562
-29.325
-52.8416
-106.703
-176.62
-188.704
-129.76
-80.6652
-52.9029
-36.6237
-26.6075
-19.3631
-9.76969
-1.3029
-2.57457
-4.08589
-4.09322
-3.61491
-3.14434
-2.73687
-2.38383
-2.08662
-1.84349
-1.64526
-1.48409
-1.34612
-1.19996
-1.02335
-0.791254
-0.471686
-0.0778484
0.193485
24.7181
23.9798
22.1811
19.2371
15.0094
9.20941
1.38393
-9.14394
-23.3529
-42.5071
-67.1418
-94.8396
-117.796
-121.747
-103.413
-77.7169
-56.5085
-41.6134
-30.9936
-22.7857
-15.8232
-11.1345
-8.53565
-6.64274
-4.92173
-3.49743
-2.42231
-1.62128
-1.01623
-0.557173
-0.209171
0.0554198
0.25465
0.408014
0.536019
0.648289
0.747036
0.819548
0.807718
0.527958
22.4971
21.6234
19.5019
16.0443
11.1122
4.42362
-4.4187
-15.8873
-30.4446
-48.3048
-68.8079
-89.5411
-104.916
-108.033
-97.075
-78.6257
-60.6524
-46.3908
-35.5437
-27.0475
-20.2377
-14.9584
-10.92
-7.9401
-5.68822
-3.95746
-2.63334
-1.62143
-0.845088
-0.249049
0.206114
0.550449
0.806528
0.991993
1.11907
1.19298
1.20739
1.1386
0.93217
0.472376
21.3529
20.4038
18.1137
14.3942
9.11159
1.99951
-7.28566
-19.0774
-33.5621
-50.5062
-68.7912
-85.8993
-97.8216
-100.471
-92.665
-77.9759
-61.9925
-48.2066
-37.248
-28.5672
-21.6336
-16.1693
-11.9679
-8.79424
-6.36568
-4.4744
-3.00167
-1.86251
-0.984821
-0.31034
0.205193
0.595267
0.885152
1.09237
1.22703
1.29207
1.27794
1.16042
0.893344
0.396453
50.8735
51.4428
52.798
54.9117
57.7218
61.1806
65.1886
69.5193
73.7557
77.2388
79.0762
78.3035
74.2861
67.2468
58.4055
49.3274
41.0204
33.7846
27.5954
22.3812
18.0726
14.5979
11.8731
9.77207
8.11538
6.7691
5.67266
4.79261
4.09438
3.54007
3.09768
2.74255
2.45411
2.21365
2.00365
1.80637
1.59948
1.35634
1.045
0.628491
49.9655
50.5116
51.8061
53.8311
56.5372
59.9065
63.8737
68.2593
72.6906
76.5137
78.734
78.1303
73.7889
66.0224
56.5865
47.3616
39.173
32.089
26.0527
21.0092
16.8789
13.5921
11.0931
9.20753
7.7084
6.47532
5.46687
4.65056
3.99028
3.45291
3.01262
2.65033
2.35034
2.09769
1.87856
1.67956
1.48163
1.25853
0.972989
0.576896
48.1933
48.6837
49.8431
51.6664
54.139
57.2808
61.0933
65.4921
70.2113
74.6445
77.6146
77.3124
72.0182
62.3912
51.804
42.637
34.9183
28.1847
22.4193
17.642
13.7911
10.9011
9.03308
7.57526
6.2271
5.05862
4.13679
3.43221
2.88931
2.46682
2.13891
1.8858
1.6919
1.54417
1.43181
1.34626
1.27416
1.18977
1.03918
0.704251
45.6349
46.0316
46.9681
48.4507
50.5019
53.1847
56.5773
60.7195
65.527
70.5731
74.5719
74.7877
67.7355