/*--------------------------------*- C++ -*----------------------------------*\
| =========                 |                                                 |
| \\      /  F ield         | OpenFOAM: The Open Source CFD Toolbox           |
|  \\    /   O peration     | Version:  2306                                  |
|   \\  /    A nd           | Website:  www.openfoam.com                      |
|    \\/     M anipulation  |                                                 |
\*---------------------------------------------------------------------------*/
FoamFile
{
    version     2.0;
    format      ascii;
    arch        "LSB;label=32;scalar=64";
    class       surfaceScalarField;
    location    "0.4";
    object      phi;
}
// * * * * * * * * * * * * * * * * * * * * * * * * * * * * * * * * * * * * * //

dimensions      [0 3 -1 0 0 0 0];

oriented        oriented;

internalField   nonuniform List<scalar> 
338621
(
24.9948
0.00253762
0.0013407
24.9869
0.00513257
0.00280957
24.9744
0.00799338
0.00450249
24.9568
0.0109974
0.00654404
24.9333
0.0142618
0.00922968
24.9004
0.0201998
0.0127103
24.8536
0.0295953
0.0170845
24.7907
0.0400568
0.0226485
24.7292
0.031662
0.029624
24.6867
0.00421524
0.0379252
24.6593
-0.0204438
0.047384
24.5864
0.0148053
0.0576054
24.6155
-0.0981097
0.068331
24.746
-0.209545
0.0785277
24.7872
-0.129223
0.0874779
24.8188
-0.126559
0.0946742
24.8468
-0.128216
0.100033
24.8694
-0.126639
0.103987
24.8884
-0.125683
0.106676
24.9146
-0.134763
0.108496
24.9443
-0.139156
0.109492
24.9672
-0.13295
0.11013
24.985
-0.128384
0.110598
24.9999
-0.125721
0.110861
25.0127
-0.123944
0.111145
25.0236
-0.122432
0.111515
25.0332
-0.121511
0.111932
25.0414
-0.120621
0.112395
25.0484
-0.119912
0.112993
25.0543
-0.119631
0.113674
25.0595
-0.119518
0.114389
25.064
-0.119572
0.115074
25.0679
-0.119705
0.115799
25.0713
-0.1199
0.116504
25.0743
-0.12016
0.117108
25.0775
-0.12077
0.117612
25.0807
-0.12122
0.117947
25.0843
-0.121685
0.118171
25.0882
-0.122206
0.118232
-0.123046
0.117874
24.9948
0.00504025
0.00131509
24.9868
0.0103849
0.00271969
24.9739
0.0164976
0.00438495
24.9563
0.0222345
0.00639755
24.9327
0.0287332
0.00904783
24.903
0.0374694
0.0124091
24.8672
0.0484405
0.0168203
24.8216
0.063081
0.0224599
24.7574
0.0660483
0.0295943
24.6835
0.039626
0.0382563
24.6416
-0.0273826
0.0484714
24.6293
-0.0328233
0.0593563
24.6685
-0.209552
0.0717131
24.7524
-0.377104
0.0831852
24.832
-0.30211
0.0928846
24.8995
-0.294699
0.100452
24.9509
-0.285689
0.105972
24.9923
-0.277966
0.109898
25.0367
-0.282603
0.112562
25.0702
-0.282478
0.114197
25.0903
-0.274341
0.115144
25.1048
-0.26307
0.115658
25.115
-0.254624
0.116066
25.1233
-0.250317
0.116294
25.1298
-0.246983
0.1165
25.1352
-0.244514
0.116736
25.139
-0.242384
0.117102
25.1421
-0.24135
0.117564
25.1449
-0.240789
0.118151
25.1468
-0.240339
0.118836
25.1481
-0.240439
0.11958
25.1487
-0.240544
0.120345
25.1493
-0.24136
0.121121
25.1496
-0.242071
0.121858
25.1498
-0.242918
0.122515
25.1501
-0.244146
0.123104
25.1506
-0.245246
0.123509
25.1516
-0.246447
0.12382
25.1534
-0.24796
0.123927
-0.248901
0.123668
24.9951
0.00718211
0.00125103
24.9872
0.0156987
0.00258249
24.9751
0.024564
0.00412851
24.9568
0.0343459
0.00611186
24.9322
0.0446402
0.00865827
24.9009
0.0568426
0.0119576
24.8609
0.0719635
0.0163958
24.8118
0.0898937
0.0221509
24.7432
0.104836
0.029684
24.6458
0.0975303
0.0392739
24.5704
0.00498644
0.0509859
-0.00657862
0.00472817
-0.00627828
24.6683
-0.0391568
0.0648617
-0.058881
-0.0389931
-0.0589899
24.5612
-0.0113446
0.0780504
-0.09553
0.0205489
-0.094577
24.7333
-0.18215
0.0911146
-0.123789
-0.212511
-0.122327
24.8257
-0.128749
0.101322
-0.121391
-0.126764
-0.119125
24.8856
-0.117962
0.108961
-0.116077
-0.11552
-0.114086
24.9389
-0.114206
0.114371
-0.114408
-0.112477
-0.112143
25.004
-0.116675
0.118084
-0.115526
-0.114943
-0.11385
25.0462
-0.112881
0.120486
-0.111325
-0.111253
-0.109772
25.0713
-0.108757
0.121733
-0.107528
-0.10712
-0.105843
25.0891
-0.414261
0.12216
25.1032
-0.399364
0.122232
25.1124
-0.386108
0.122284
25.1198
-0.379956
0.122262
25.126
-0.375391
0.122238
25.1307
-0.371507
0.122248
25.1341
-0.368106
0.122363
25.1368
-0.366663
0.122633
25.1381
-0.365221
0.123065
25.1393
-0.365148
0.123651
25.1396
-0.365076
0.124355
25.1396
-0.365672
0.125143
25.1389
-0.366623
0.125924
25.1381
-0.368088
0.126797
25.1369
-0.36928
0.127556
25.1357
-0.371183
0.128284
25.1349
-0.373285
0.128843
25.1345
-0.375357
0.129301
25.1344
-0.377468
0.129559
-0.379405
0.129496
24.9955
0.00956666
0.00115174
24.9886
0.0202457
0.00237554
24.9766
0.0327406
0.00377389
24.9596
0.0457401
0.00564205
24.9348
0.0613461
0.00800895
24.9003
0.0801777
0.0111694
24.8547
0.102012
0.0154714
24.7967
0.126627
0.0212314
24.7304
0.142018
0.02905
6.14165
0.0364593
0.0395141
0.0535683
0.0374228
0.053174
6.16378
6.14063
6.16166
6.1242
0.0166618
0.00575869
-6.11125
6.09927
-0.0347567
0.00755491
-6.10332
6.1249
-0.0424007
0.00944119
-6.11717
6.14402
-0.220454
0.0114248
-6.16264
6.1768
-0.155865
0.0129457
-6.19
6.20065
-0.14257
0.0139563
-6.21193
6.2262
-0.143158
0.0146833
-6.23811
6.24526
-0.13898
0.0151631
-6.25098
6.2561
-0.133429
0.0154398
-6.2604
6.2643
-0.12827
0.0156093
25.0993
-0.139712
0.128874
-0.140277
-0.139748
-0.141392
-6.26778
-6.27257
-6.26829
-6.27266
25.1062
-0.534786
0.128501
25.1104
-0.517713
0.127463
25.1146
-0.510616
0.126385
25.1169
-0.503368
0.125677
25.1176
-0.497493
0.125363
25.1177
-0.493715
0.125444
25.1165
-0.491287
0.12589
25.114
-0.48941
0.12663
25.1105
-0.489163
0.127581
25.1061
-0.489374
0.128659
25.1008
-0.490114
0.129792
25.0945
-0.491192
0.130879
25.0876
-0.493299
0.13203
25.0805
-0.495121
0.133007
25.0728
-0.497427
0.133909
25.0651
-0.500166
0.134594
25.0575
-0.502852
0.135065
25.0513
-0.506494
0.135299
-0.508968
0.135136
24.9972
0.0102289
0.00101715
24.9911
0.0242147
0.00209454
24.9812
0.0393228
0.00331707
24.9656
0.0563503
0.00496751
24.9426
0.0772639
0.00706226
24.9091
0.103785
0.00987776
24.8591
0.138233
0.0137147
24.7849
0.181703
0.0190406
6.1712
0.230716
0.026339
6.16394
6.17081
6.1639
6.15519
0.04853
0.00394167
6.13003
0.0055147
-6.1578
0.0198747
0.0116929
0.0114474
0.0201055
-0.0408669
-6.07747
6.04358
0.00746731
-0.00246921
0.00394707
0.0034394
-0.00216266
0.023658
-6.04334
6.06177
0.00972825
0.0290673
-0.0402429
-0.0405556
-0.0191333
0.0426922
-6.11412
6.13918
0.012307
-0.0517252
-0.0665105
-0.104478
-0.0521662
0.237496
-6.17128
6.18302
0.0137185
-0.0502786
-0.0541901
-0.0534882
-0.0506907
0.183191
-6.19464
6.20814
0.0144264
-0.0507393
-0.0499281
-0.049874
-0.0507392
0.173367
-6.22183
6.23377
0.014696
-0.0488047
-0.0486906
-0.0487125
-0.0488042
0.168402
-6.24348
6.25072
0.0146974
-0.0458131
-0.0457569
-0.0457021
-0.0459112
0.161262
-6.25702
6.26147
0.0146844
-0.0429542
-0.0432844
-0.0431138
-0.0431751
0.153396
-6.26542
6.26747
0.0147716
-0.0405377
-0.0411733
-0.040885
-0.0408662
0.14664
-6.27057
6.27207
-0.155996
0.0147846
25.0516
-0.627543
0.120597
-6.27221
-6.26748
-6.273
-6.26676
25.0314
-0.615252
0.117762
25.0095
-0.60296
0.114181
24.9872
-0.592248
0.111162
24.9655
-0.584752
0.108995
24.9437
-0.579586
0.107696
24.9214
-0.576165
0.107148
24.8992
-0.574418
0.10718
24.8764
-0.573898
0.107602
24.8533
-0.574592
0.108252
24.8304
-0.576186
0.108998
24.8078
-0.578309
0.109708
24.7851
-0.581038
0.110429
24.7633
-0.584233
0.110986
24.7421
-0.587618
0.111379
24.7218
-0.591412
0.111519
24.7032
-0.595559
0.11133
24.6865
-0.600562
0.110768
-0.607243
0.109678
24.9998
0.00886195
0.000849288
24.9964
0.025878
0.00174148
24.9888
0.0441813
0.0027623
24.977
0.0641254
0.00406502
24.9593
0.0891806
0.00578087
24.9321
0.122917
0.00803458
24.8888
0.170405
0.0110473
24.8163
0.23895
0.0152521
6.17059
0.344756
0.02091
6.17013
6.17056
6.16996
-0.0644861
6.14497
0.0869635
0.00312447
-0.0194315
-1.52758
1.52244
0.02398
0.000585426
-0.0191129
-1.50434
1.49229
0.0304346
0.000726625
-1.46908
0.0523548
1.47907
-0.0634618
0.00111163
-1.53065
0.0842039
1.53928
-0.0941589
0.0013207
-1.53699
0.0606129
-0.064197
0.00168049
1.5389
-1.54816
0.0586515
-0.0625781
0.0013108
1.55078
0.055647
-1.5568
1.55837
-0.0580875
0.0008761
0.0508093
-1.56161
1.56225
-0.0520159
0.000572769
0.0473109
-1.56309
1.56322
-0.0479656
0.000529359
0.0445292
-1.56264
1.56227
-0.0448984
0.000745512
-1.5571
0.164834
6.17523
-0.14435
0.00798183
-1.54327
-1.55805
-1.54528
23.8256
-0.715022
0.0534395
-6.11011
-5.80475
-6.09806
-5.7786
23.851
-0.692456
0.0517926
23.8743
-0.676639
0.0503069
23.8959
-0.663587
0.04972
23.9144
-0.653191
0.0500281
23.929
-0.645126
0.0508438
23.9404
-0.639258
0.0517464
23.949
-0.635391
0.0524181
23.9557
-0.633308
0.0526798
23.9613
-0.632686
0.0524719
23.9665
-0.633173
0.051814
23.972
-0.634576
0.0507441
23.9781
-0.636507
0.0493973
23.9848
-0.63873
0.0477771
23.9925
-0.641276
0.0459245
24.0011
-0.643828
0.0438353
24.0105
-0.646388
0.0414577
24.0201
-0.648933
0.0387126
-0.651105
0.0356047
25.003
0.00493798
0.000674999
25.0036
0.02396
0.00135344
25.0007
0.0449161
0.00212485
24.9951
0.0667783
0.00303693
24.9862
0.0937737
0.00421319
24.9726
0.13079
0.00574605
24.9528
0.182597
0.00765637
24.9213
0.260297
0.0101171
6.21293
0.385811
0.0130579
6.22097
6.21262
6.22065
-0.10537
6.1974
0.119023
0.00187938
-0.0391049
-1.5419
1.53572
0.0449592
0.000321566
-0.081577
-1.5062
1.48769
0.0998305
0.000254146
0.0044583
-0.0747548
0.0749506
-0.0046814
2.73038e-05
-0.0214198
0.000449634
0.0209312
2.23745e-06
3.66972e-05
-0.189068
0.00632805
-0.0174306
-0.00269742
0.202868
-1.13848
0.0491587
-0.0697432
0.00357213
1.15549
0.0414059
-1.19285
1.20182
-0.0516892
0.00130816
0.0392552
-1.2327
1.24371
-0.0502954
2.71501e-05
0.0372372
-1.27466
1.28489
-0.0465884
-0.000869878
0.0374411
-1.31336
1.32367
-0.0460145
-0.00173726
-1.37345
0.165312
5.75122
-0.202901
-0.0128447
-1.48544
-1.35866
-1.48323
24.045
-0.652903
-0.0884699
-5.82352
-6.16698
-5.86195
-6.16619
24.0635
-0.624253
-0.0866702
24.0821
-0.610257
-0.0849968
24.1023
-0.600037
-0.0838207
24.1238
-0.591617
-0.0829896
24.1462
-0.585279
-0.0823013
24.1696
-0.580894
-0.0817294
24.1934
-0.578042
-0.0811666
24.2172
-0.576501
-0.0806548
24.2407
-0.575962
-0.0802282
24.2637
-0.576143
-0.0799659
24.2858
-0.576897
-0.0798598
24.3073
-0.577939
-0.0800436
24.3281
-0.579082
-0.0804562
24.3482
-0.580135
-0.0811833
24.3678
-0.581188
-0.0822518
24.3869
-0.581858
-0.0836651
24.4053
-0.581817
-0.0854764
-0.580083
-0.087675
25.0048
-9.36637e-05
0.000474373
25.0102
0.0176918
0.000940788
25.0152
0.0384852
0.00142647
25.0192
0.0607835
0.00197221
25.0211
0.089286
0.00256224
25.0261
0.122512
0.00326188
25.0381
0.166735
0.00393356
25.0637
0.230324
0.00440648
6.27405
0.330867
0.004356
6.28186
6.27428
6.28414
-0.111202
6.28163
0.103144
0.000488073
-0.0444827
-1.57777
1.57942
0.0428
3.57631e-05
-0.0840444
-1.59772
1.61261
-0.000172933
0.069334
-0.0260659
-1.71234
1.75142
-0.00146779
0.0572361
-0.0213152
-0.0261475
-0.0213151
0.0996755
-1.71388
1.68433
-0.00136043
-0.0687637
0.102918
-1.60994
-0.00151522
1.59911
-0.0905775
0.0779102
-1.58416
-0.00137305
1.58116
-0.0735376
0.0559983
-1.57639
1.57544
-0.0537345
-0.00131337
0.0561378
-1.57372
1.57194
-0.0530451
-0.00131758
0.0501751
-1.57166
1.57105
-0.0482036
-0.00136427
0.0464784
-1.57022
1.56975
-0.0445706
-0.00143622
-1.56743
0.171225
6.26494
-0.154706
-0.0126583
-1.56698
-1.56725
-1.56715
25.0743
-0.531018
-0.117052
-6.269
-6.26898
-6.27145
-6.26966
25.0761
-0.510182
-0.115888
25.0736
-0.493809
-0.113982
25.07
-0.484346
-0.112107
25.0667
-0.477826
-0.110463
25.0638
-0.473357
-0.109065
25.0614
-0.470362
-0.108065
25.059
-0.46824
-0.107441
25.0572
-0.46746
-0.107235
25.0556
-0.46697
-0.107425
25.0542
-0.466663
-0.108023
25.0531
-0.467023
-0.108827
25.0524
-0.467214
-0.109958
25.0516
-0.467053
-0.111237
25.0514
-0.467279
-0.112734
25.0517
-0.467043
-0.114422
25.0525
-0.466384
-0.11629
25.0541
-0.464984
-0.118368
-0.463018
-0.120555
25.0058
-0.00519024
0.000240274
25.0144
0.00859889
0.000526453
25.0275
0.0246058
0.000752766
25.0389
0.0484192
0.000927253
25.0544
0.0728605
0.00100919
25.0778
0.0981428
0.000903151
25.1156
0.128526
0.00045011
25.1786
0.168188
-0.000794079
6.32036
0.230008
-0.00329807
6.31856
6.32471
6.31917
-0.0884514
6.33635
0.073165
-0.000704738
-0.0331991
6.41262
0.0876854
-0.00157174
-0.0343908
-0.0333076
-0.0339307
-6.36391
-0.0334865
6.51623
0.0759149
-0.00324109
-0.0262701
-0.033282
-0.026136
-6.46972
-0.00760667
-6.54705
6.51382
-0.00529048
-0.00585434
0.0147401
-0.0078152
0.0450679
0.0453114
-6.53587
6.51405
-0.123344
-0.0088548
0.0391239
0.0360986
0.0335064
0.0552465
-6.44919
6.41117
-0.177994
-0.0112414
0.0557603
0.0576455
0.0586304
0.0565057
-6.37089
6.33854
-0.17596
-0.0127605
0.055202
0.0554932
0.0538657
0.0465432
-6.32037
6.30919
-0.157313
-0.0138091
0.0455702
0.0454235
0.0447471
0.044317
-6.30066
6.29498
-0.155735
-0.0144694
0.0440447
0.0438937
0.0436214
0.0411342
-6.29077
6.28565
-0.142322
-0.0148105
0.0406006
0.0406002
0.0399204
0.0380625
-6.28164
6.27641
-0.12974
-0.0149503
0.0375655
0.0374695
0.0368199
0.139644
-6.27502
6.2734
-0.123041
-0.0149777
25.075
-0.398037
-0.124162
-6.27107
-6.27109
-6.27137
-6.2703
25.0679
-0.380523
-0.122579
25.0644
-0.369312
-0.120974
25.0616
-0.36189
-0.119668
25.0594
-0.356981
-0.118636
25.0574
-0.353504
-0.117833
25.0556
-0.351342
-0.117256
25.0543
-0.350008
-0.116895
25.0528
-0.349317
-0.116724
25.0516
-0.349056
-0.116715
25.0507
-0.348828
-0.116872
25.05
-0.349221
-0.11711
25.0493
-0.349089
-0.117406
25.0495
-0.349435
-0.117825
25.0498
-0.349273
-0.118348
25.0504
-0.34868
-0.118967
25.052
-0.348255
-0.119729
25.055
-0.347315
-0.120685
-0.346299
-0.121867
25.0065
-0.0103525
0.000125077
25.0165
-0.0016293
0.000206746
25.0255
0.0153367
0.000196313
25.0423
0.0315999
8.17861e-05
25.0691
0.046352
-0.000274567
25.1026
0.0656096
-0.000998259
25.1501
0.083376
-0.00231404
25.2164
0.106629
-0.00468283
25.3252
0.130088
-0.00874984
25.4298
0.143393
-0.0153469
-0.0609858
-0.0565886
-0.0583686
-0.0566774
25.577
0.130521
-0.025308
-0.0604836
-0.063912
-0.0612625
-0.0666579
25.7106
0.0525331
-0.0395335
-0.0418743
-0.0281144
-0.0449678
-0.0313687
25.5887
-0.15876
-0.056909
0.021387
0.124283
0.0203632
0.172
25.4962
-0.240815
-0.0758897
0.0838343
0.117655
0.0996146
0.108599
25.4272
-0.252019
-0.0920744
0.0838105
0.149315
0.032468
0.147766
25.3415
-0.355823
-0.104156
0.13607
0.138961
0.134462
0.136324
25.2579
-0.324587
-0.111924
0.129484
0.132948
0.127285
0.130296
25.1928
-0.33311
-0.116632
0.131976
0.128713
0.128896
0.125077
25.1512
-0.31025
-0.119203
0.121298
0.117915
0.118033
0.113765
25.129
-0.289425
-0.120397
0.110094
0.109669
0.105457
0.106745
25.1112
-0.273274
-0.120692
0.104902
0.104029
0.102221
0.100677
25.0953
-0.261861
-0.120277
25.0858
-0.251477
-0.119571
25.0795
-0.244155
-0.118918
25.0747
-0.238643
-0.118434
25.0706
-0.234897
-0.117986
25.0675
-0.232762
-0.11767
25.0643
-0.230684
-0.117501
25.0618
-0.229952
-0.117491
25.0593
-0.229158
-0.117641
25.0573
-0.229151
-0.117931
25.0559
-0.229077
-0.118348
25.0543
-0.2288
-0.11887
25.0536
-0.22899
-0.119386
25.0528
-0.228602
-0.120018
25.0525
-0.228334
-0.120659
25.0533
-0.228106
-0.121339
25.0548
-0.22765
-0.122076
25.0565
-0.226165
-0.122902
-0.224866
-0.123826
25.0068
-0.0152962
7.68629e-06
25.0101
-0.00493427
-2.38805e-05
25.018
0.0075935
-0.00019624
25.0378
0.0123087
-0.000498688
25.0635
0.0217976
-0.00113397
25.0931
0.0383339
-0.00226083
25.1411
0.0394586
-0.00409227
25.2024
0.0524641
-0.00701432
25.2815
0.0628117
-0.0116509
25.377
0.0666974
-0.0185496
25.4833
0.0529142
-0.0282908
25.5626
0.015105
-0.0414181
25.5396
-0.0781948
-0.0570097
25.5248
-0.152286
-0.0731756
25.4019
-0.0411455
-0.0874635
25.3196
-0.174496
-0.0987635
25.2702
-0.168727
-0.10638
25.2099
-0.161397
-0.111372
25.1664
-0.152524
-0.114225
25.1358
-0.143229
-0.11571
25.1137
-0.13488
-0.116311
25.0966
-0.128532
-0.116237
25.0844
-0.123346
-0.115915
25.0754
-0.119669
-0.115472
25.0687
-0.116909
-0.115089
25.0637
-0.115174
-0.114693
25.0591
-0.113788
-0.114451
25.0559
-0.113081
-0.114362
25.0532
-0.112927
-0.11435
25.051
-0.112488
-0.114474
25.0492
-0.112697
-0.114685
25.0476
-0.112492
-0.114966
25.0469
-0.1128
-0.115252
25.0461
-0.112646
-0.115565
25.0462
-0.112833
-0.115899
25.0466
-0.112484
-0.116215
25.0475
-0.112539
-0.116527
25.049
-0.112251
-0.116864
25.0518
-0.111672
-0.117277
-0.111969
-0.117828
24.9871
-3.79073e-05
24.9822
-9.56263e-05
24.9902
-0.000352567
25.0032
-0.00068335
25.0264
-0.00147155
25.0675
-0.00271504
25.1117
-0.0047074
25.1722
-0.00784399
25.2479
-0.0126664
25.3344
-0.0195449
25.4167
-0.0289183
25.4735
-0.0410569
25.451
-0.0550996
25.3689
-0.0695897
25.411
-0.0827261
25.3305
-0.0936833
25.2632
-0.101295
25.208
-0.106167
25.1646
-0.109052
25.1319
-0.110588
25.1082
-0.111261
25.091
-0.111332
25.0787
-0.111084
25.0697
-0.110672
25.0632
-0.110363
25.0581
-0.110103
25.0543
-0.109988
25.0513
-0.110078
25.0485
-0.110191
25.0465
-0.110463
25.0446
-0.110846
25.0434
-0.111242
25.0422
-0.111642
25.0416
-0.112067
25.0414
-0.112537
25.0418
-0.11296
25.0426
-0.113345
25.0441
-0.113728
25.0466
-0.114159
-0.114705
24.9951
0.00200603
0.00255849
24.9878
0.0047941
0.00530633
24.9764
0.00737478
0.00852881
24.96
0.0105163
0.0125064
24.9382
0.0133584
0.0175659
24.9086
0.0180718
0.0241323
24.8665
0.0262958
0.0326032
24.8091
0.0361397
0.0434007
24.7537
0.0274509
0.0568408
24.718
-0.000586353
0.0732511
24.694
-0.0220016
0.0920324
24.6328
0.00442844
0.112663
24.6623
-0.096894
0.133878
24.7806
-0.195889
0.154323
24.8136
-0.119106
0.172078
24.8382
-0.117107
0.186216
24.8618
-0.120942
0.19683
24.8812
-0.120246
0.20458
24.8979
-0.120025
0.209999
24.9248
-0.132
0.213649
24.9515
-0.133065
0.215895
24.9722
-0.127773
0.217311
24.9885
-0.123924
0.218222
25.0022
-0.121624
0.218875
25.0136
-0.11966
0.219457
25.0236
-0.118484
0.22008
25.032
-0.117309
0.220808
25.0392
-0.116402
0.221661
25.0455
-0.115978
0.22267
25.0511
-0.115758
0.223829
25.0559
-0.115454
0.225079
25.0599
-0.115286
0.226377
25.0638
-0.115736
0.227646
25.0676
-0.116251
0.228911
25.071
-0.116314
0.230016
25.0746
-0.116963
0.23101
25.0782
-0.117364
0.231674
25.0821
-0.11784
0.232138
25.0867
-0.118558
0.232167
-0.119103
0.231208
24.9952
0.00401449
0.00249845
24.988
0.00955969
0.00518073
24.9762
0.0152994
0.00833588
24.9598
0.0210633
0.0122533
24.9376
0.0272403
0.0172616
24.9098
0.034341
0.0238092
24.8766
0.0436791
0.0323301
24.8342
0.0572992
0.0433567
24.7718
0.0614739
0.0573883
24.6968
0.0369117
0.0748363
24.6547
-0.0279849
0.095396
24.5947
0.00388325
0.118478
24.6309
-0.205237
0.142223
24.7635
-0.411728
0.164972
24.8442
-0.292189
0.184094
24.9121
-0.28419
0.198974
24.9624
-0.275633
0.21004
25.0027
-0.268547
0.217896
25.0477
-0.275683
0.223312
25.0795
-0.276238
0.226776
25.0979
-0.265077
0.228838
25.1109
-0.25515
0.230039
25.1198
-0.247481
0.230781
25.1267
-0.243455
0.231276
25.1325
-0.240583
0.231711
25.1366
-0.238018
0.232213
25.1395
-0.235999
0.232886
25.1422
-0.235295
0.233765
25.1441
-0.234565
0.234851
25.1453
-0.234207
0.236106
25.1464
-0.234412
0.237476
25.1474
-0.234867
0.2389
25.1477
-0.235276
0.240362
25.1479
-0.23632
0.241746
25.1486
-0.237483
0.243015
25.1488
-0.238238
0.244104
25.1496
-0.239582
0.244944
25.1511
-0.240994
0.245483
25.1527
-0.241927
0.245654
-0.243267
0.24482
24.9954
0.00599487
0.00237569
24.9884
0.0141933
0.0049276
24.9768
0.0231303
0.00794276
24.9599
0.0323293
0.011714
24.9368
0.0423933
0.0165876
24.9066
0.053257
0.0230449
24.8686
0.066252
0.0316246
24.8223
0.0824214
0.0430179
24.7571
0.0978903
0.0580185
24.663
0.0924728
0.077322
24.5871
0.00431192
0.101108
-0.00616731
0.00428305
-0.00527046
24.7225
-0.0393791
0.1284
-0.0598095
-0.038606
-0.0584307
24.5817
0.0205891
0.156713
-0.095334
0.0225686
-0.0923143
24.7436
-0.214412
0.183505
-0.123187
-0.210969
-0.11873
24.833
-0.127548
0.204058
-0.119939
-0.122994
-0.11467
24.8922
-0.116656
0.219341
-0.115365
-0.11182
-0.109974
24.9457
-0.114043
0.230548
-0.113641
-0.108949
-0.108357
25.0106
-0.11642
0.2383
-0.115305
-0.111384
-0.110129
25.0522
-0.112895
0.243352
-0.111493
-0.108129
-0.107266
25.0771
-0.109284
0.246214
-0.107558
-0.105348
-0.103275
25.0948
-0.40785
0.247317
25.1072
-0.392887
0.247564
25.1158
-0.381093
0.247405
25.1224
-0.375558
0.247795
25.1276
-0.371502
0.247909
25.1316
-0.367983
0.248283
25.1347
-0.365078
0.248308
25.1365
-0.363295
0.248832
25.1376
-0.362205
0.249632
25.1388
-0.362465
0.250698
25.1388
-0.361963
0.251982
25.1385
-0.362899
0.253426
25.1385
-0.36408
0.254716
25.1376
-0.365141
0.256518
25.1365
-0.366752
0.257989
25.1356
-0.368424
0.259311
25.1349
-0.370346
0.260384
25.1343
-0.372298
0.26112
25.1348
-0.374259
0.261471
-0.375929
0.260845
24.9964
0.00756072
0.00218671
24.9898
0.0186484
0.00453615
24.9785
0.0309095
0.00732128
24.9619
0.0437147
0.0108305
24.9387
0.0581686
0.0154208
24.9055
0.0759074
0.0215909
24.8607
0.0962573
0.030013
24.803
0.119632
0.041537
24.7354
0.136985
0.0573622
6.14304
0.036774
0.0789312
0.0515108
0.036863
0.0512713
6.16314
6.14312
6.16263
-0.0114278
6.12613
0.0152758
0.0173279
-0.0151213
-6.11435
6.10279
-0.0357007
0.0229186
-0.0190155
-6.107
6.09973
0.0178904
0.0288742
-0.0229972
-6.11514
6.14699
-0.258269
0.034904
-0.0260595
-6.16486
6.1785
-0.154685
0.0394947
-0.0282132
-6.19135
6.20204
-0.141842
0.0427141
-0.0297485
-6.21284
6.22718
-0.143703
0.0451177
-0.0307666
-6.23992
6.24711
-0.13959
0.0467928
-0.0313737
-6.25289
6.258
-0.134399
0.0477969
-0.0316738
-6.26166
6.2655
-0.129777
0.0483379
25.1005
-0.142037
0.271026
-0.141706
-0.143011
-0.141073
-6.26912
-6.27282
-6.26866
-6.27209
25.1077
-0.540776
0.269183
25.1122
-0.525055
0.267011
25.1162
-0.519673
0.266464
25.1186
-0.51412
0.265906
25.1191
-0.509017
0.265949
25.119
-0.505425
0.265858
25.1177
-0.502489
0.26643
25.1151
-0.500361
0.267392
25.111
-0.499501
0.268686
25.1063
-0.498837
0.270228
25.1005
-0.499254
0.271932
25.0937
-0.499805
0.273429
25.0864
-0.50119
0.275421
25.0785
-0.502802
0.276945
25.0705
-0.504894
0.278335
25.0621
-0.506632
0.279273
25.0542
-0.509018
0.279733
25.0477
-0.512084
0.279577
-0.514039
0.278203
24.9982
0.00743535
0.00192966
24.9928
0.0221093
0.0040034
24.983
0.0375535
0.00645607
24.9681
0.054034
0.00955352
24.9457
0.073924
0.0136331
24.9134
0.0991536
0.0189147
24.8645
0.131844
0.0268421
24.7919
0.173536
0.0375642
6.17326
0.221984
0.0528757
6.16645
6.17371
6.16674
-0.00781456
6.15836
0.0476019
0.0118872
-0.011016
6.13304
0.0168178
-6.16124
0.0190941
0.0108313
0.0193438
0.0105769
-0.0374312
-0.0150544
-6.08099
6.04858
0.0231577
-0.00336791
0.00234772
-0.00331219
0.0022375
0.0263345
-0.0197898
-6.04777
6.0618
0.0305424
0.0514593
-0.0414057
0.0510806
-0.04128
-0.0446879
-0.0246854
-6.10207
6.14256
0.0378374
-0.0511289
-0.129478
-0.0517437
-0.129086
0.307769
-0.0273938
-6.17213
6.18222
0.0417713
-0.0496134
-0.0533575
-0.0502771
-0.0527458
0.181504
-0.0291654
-6.19458
6.20825
0.0443884
-0.0507078
-0.0503604
-0.051299
-0.0497737
0.173319
-0.0302337
-6.222
6.23414
0.0463235
-0.0492415
-0.0496677
-0.0497767
-0.0491532
0.169732
-0.0306983
-6.24403
6.25135
0.0474057
-0.046271
-0.0469852
-0.0470858
-0.0464539
0.162852
-0.0308618
-6.2578
6.26198
0.0478487
-0.0436923
-0.0445985
-0.0443961
-0.0439517
0.155487
-0.0309284
-6.2659
6.26787
0.0478607
-0.0414482
-0.0424623
-0.0420509
-0.0416656
0.148705
-6.27032
-0.0312353
6.27203
-0.159693
0.0471717
25.0467
-0.654885
0.264798
-6.27295
-6.26783
-6.27248
-6.26361
25.0252
-0.644204
0.258391
25.0021
-0.634507
0.252118
24.9787
-0.625007
0.245492
24.9561
-0.617279
0.239874
24.9334
-0.610832
0.235829
24.9109
-0.605531
0.232684
24.8883
-0.601679
0.231065
24.8651
-0.599194
0.230472
24.842
-0.598055
0.2306
24.8189
-0.598097
0.230923
24.7959
-0.599003
0.23193
24.773
-0.600424
0.232587
24.7507
-0.602537
0.233029
24.7288
-0.60478
0.233097
24.7084
-0.607253
0.232577
24.6894
-0.610012
0.231279
24.6726
-0.613546
0.229041
-0.618677
0.2254
25.002
0.00405335
0.00159951
24.9996
0.0229102
0.00333291
24.9918
0.0427868
0.00535388
24.9796
0.0624021
0.0078824
24.9619
0.0861384
0.0111905
24.9357
0.11812
0.0151514
24.8933
0.163456
0.0218085
24.8218
0.229665
0.0303764
6.17247
0.333171
0.0428581
6.17155
6.17277
6.17167
-0.00616836
-0.0624054
6.14718
0.0842273
0.00959316
-0.00200487
-0.0185177
-1.52813
1.52295
0.0230327
0.00265954
-0.00292779
-0.0170307
-1.505
1.49267
0.0285178
0.00375439
-0.00430884
-1.47068
0.0536003
1.48083
-0.0649117
0.00548829
-0.0058657
-1.53031
0.15372
1.54178
-0.166717
0.00742076
-0.00620309
-1.53769
0.0592751
-0.0627516
1.53936
0.00802184
-1.54809
-0.00682698
0.0592032
-0.063813
0.00876592
1.55075
-0.00697082
0.057323
-1.55634
1.55781
-0.0607123
0.00889732
-0.00692983
0.053146
-1.56086
1.56143
-0.055517
0.00873039
-0.00694631
0.0498373
-1.56214
1.56223
-0.0515271
0.00855214
-0.00702314
0.0468014
-1.56165
1.56129
-0.0478155
0.00839577
-1.55694
-0.0276004
0.167167
6.17911
-0.144511
0.0292617
-1.54154
-1.55853
-1.54644
23.8359
-0.759923
0.127871
-6.1153
-5.81315
-6.08723
-5.78962
23.8512
-0.733311
0.125528
23.8633
-0.718517
0.122193
23.8747
-0.704756
0.118093
23.8854
-0.692853
0.114924
23.8952
-0.682895
0.113099
23.9049
-0.675039
0.111587
23.9142
-0.669319
0.110708
23.9234
-0.665621
0.109886
23.9326
-0.663596
0.108848
23.942
-0.662845
0.107203
23.9512
-0.663061
0.105586
23.9607
-0.663799
0.103255
23.9702
-0.664799
0.10049
23.98
-0.665846
0.097252
23.9899
-0.666797
0.0934894
23.9999
-0.667584
0.0890331
24.0097
-0.668214
0.083513
-0.668746
0.0760783
25.009
0.00275166
0.00128677
25.0097
0.0209512
0.00259007
25.0063
0.0442344
0.00409028
24.9995
0.0663536
0.00591874
24.9894
0.092185
0.0082318
24.9756
0.126868
0.0107373
24.9558
0.175715
0.0151757
24.9248
0.250421
0.0203054
6.21334
0.374029
0.0272991
6.22138
6.21339
6.22162
-0.00374515
-0.102188
6.19771
0.115681
0.00586692
-0.00114778
-0.0380665
-1.54188
1.53568
0.0438831
0.0015276
-0.00152524
-0.0795322
-1.50558
1.4871
0.0975766
0.00196607
-0.000217296
0.00465896
-0.0749378
0.0751949
-0.00492312
0.000224863
0.00642995
-0.224461
0.0158845
-0.027398
-0.00370965
0.233254
-1.18835
0.00935385
0.0642488
-0.0819203
-0.00653712
1.20321
0.00860015
0.0523418
-1.23511
1.24139
-0.06034
-0.00687231
0.00927659
0.0493844
-1.2637
1.2721
-0.0590295
-0.00803427
0.0095833
0.0450069
-1.29484
1.30234
-0.0534189
-0.00867047
0.00871592
0.0425795
-1.3227
1.33064
-0.0509896
-0.00824917
-1.37193
0.0213405
0.169943
5.72073
-0.207217
-0.0271157
-1.48465
-1.33879
-1.48231
24.0837
-0.680057
-0.207412
-5.80177
-6.16767
-5.90118
-6.17396
24.1121
-0.650264
-0.19818
24.1355
-0.637787
-0.189155
24.1564
-0.627847
-0.1816
24.1753
-0.619405
-0.175359
24.1934
-0.612975
-0.170353
24.2117
-0.608583
-0.166511
24.2307
-0.605794
-0.163689
24.2505
-0.604312
-0.161714
24.2708
-0.60375
-0.160413
24.2916
-0.603963
-0.159664
24.3128
-0.604776
-0.159334
24.3342
-0.605834
-0.159405
24.3554
-0.606629
-0.159775
24.376
-0.607175
-0.160453
24.3958
-0.607353
-0.161484
24.4146
-0.607056
-0.163064
24.4321
-0.605765
-0.165435
-0.602308
-0.168951
25.0084
-0.00244066
0.000902109
25.0155
0.0129542
0.00179793
25.0223
0.0361783
0.00275388
25.0261
0.0606232
0.00382718
25.0254
0.0904735
0.00504933
25.0296
0.119787
0.00616451
25.0411
0.160274
0.00783399
25.0687
0.218339
0.00901924
6.27537
0.306803
0.00947819
6.28775
6.27675
6.29113
-0.00103112
-0.107502
6.28257
0.0997443
0.00161622
-0.000170236
-0.0434581
-1.57751
1.57911
0.0418212
0.000218344
0.000228929
-0.0802415
-1.59904
1.61533
0.0639778
-0.000251211
0.00116319
-0.0265103
-1.71083
1.74915
0.0593264
-0.0005373
-0.0220012
-0.0274556
-0.0223227
0.00305093
0.109553
-1.71017
1.67938
-0.078469
-0.00336218
0.105963
-1.60917
0.00493369
1.59809
-0.0936181
-0.00619682
0.00585327
0.0755589
-1.58318
-0.00744291
1.58107
-0.0718346
0.00630173
0.0556329
-1.57784
1.57634
-0.0523798
-0.00804963
0.00651443
0.05726
-1.57551
1.57408
-0.0539677
-0.00837634
0.006643
0.0512916
-1.5733
1.57268
-0.0487536
-0.00855402
0.00666131
0.0475596
-1.56996
1.57028
-0.0459855
-0.00855311
-1.57025
0.0282914
0.175985
6.27596
-0.155988
-0.0418109
-1.57034
-1.5706
-1.57123
25.0927
-0.523197
-0.254297
-6.27861
-6.27143
-6.28514
-6.27712
25.0904
-0.512846
-0.250967
25.085
-0.49973
-0.246637
25.0793
-0.491583
-0.242772
25.0741
-0.485209
-0.239388
25.0699
-0.481322
-0.236576
25.0664
-0.478655
-0.234523
25.0637
-0.477144
-0.233324
25.0615
-0.476461
-0.232973
25.0598
-0.476083
-0.233394
25.0586
-0.476233
-0.234485
25.0581
-0.47679
-0.236348
25.0577
-0.477253
-0.238146
25.0573
-0.476972
-0.240477
25.0576
-0.477188
-0.243029
25.0582
-0.47655
-0.24585
25.0592
-0.475345
-0.249
25.0606
-0.47298
-0.252556
-0.469928
-0.256339
25.0071
-0.00719597
0.000541166
25.0174
0.00217438
0.00103681
25.0317
0.0211705
0.00147995
25.0401
0.0512349
0.00183661
25.0577
0.0718616
0.0020204
25.0811
0.0955561
0.00185173
25.1186
0.122285
0.000983065
25.1833
0.154216
-0.00125359
6.32917
0.194355
-0.00605276
6.31851
6.33352
6.3174
-0.0847698
0.00130941
6.34729
0.0673638
-0.00201568
-0.032537
0.00316191
6.42022
0.0859016
-0.00459261
-0.0305104
-0.0326705
-0.0295049
-6.37951
-0.0288859
0.00654634
6.49038
0.079429
-0.00953394
-0.0283932
-0.0277356
-0.0304471
-6.45134
-0.00914405
0.0114785
-6.5384
6.4979
-0.0594773
-0.017493
0.062908
-0.010171
0.0624412
0.0353201
0.0181671
-6.49102
6.47306
-0.14569
-0.0272334
0.0517502
0.034691
0.0510311
0.0586241
-6.44977
0.0238288
6.40644
-0.184886
-0.0353847
0.0578228
0.0621282
0.0612959
0.0565512
0.0272885
-6.36642
6.33854
-0.179303
-0.0406636
0.0546457
0.0556018
0.0537658
0.0463058
0.0294917
-6.32456
6.31729
-0.160678
-0.0441284
0.0456214
0.0455707
0.0450104
0.0448463
0.0307931
-6.31296
6.30506
-0.155582
-0.0462267
0.0452644
0.0441677
0.0445686
0.0438311
0.03135
-6.29655
6.28786
-0.144338
-0.0472748
0.0412791
0.0431883
0.0406256
0.0386921
0.0314857
-6.28078
6.27335
-0.126635
-0.0476144
0.03569
0.0390674
0.0367589
0.136898
-6.2722
0.0315492
6.27285
-0.121634
-0.0474532
25.0777
-0.382156
-0.260478
-6.27159
-6.26946
-6.27219
-6.26917
25.0717
-0.372502
-0.256944
25.0681
-0.363584
-0.253576
25.065
-0.35703
-0.251078
25.0628
-0.352673
-0.249045
25.0606
-0.349527
-0.247421
25.0589
-0.347979
-0.24623
25.0576
-0.347275
-0.245465
25.0562
-0.346686
-0.245085
25.0554
-0.34699
-0.245041
25.0545
-0.346996
-0.245252
25.0541
-0.347526