/*--------------------------------*- C++ -*----------------------------------*\
| =========                 |                                                 |
| \\      /  F ield         | OpenFOAM: The Open Source CFD Toolbox           |
|  \\    /   O peration     | Version:  2306                                  |
|   \\  /    A nd           | Website:  www.openfoam.com                      |
|    \\/     M anipulation  |                                                 |
\*---------------------------------------------------------------------------*/
FoamFile
{
    version     2.0;
    format      ascii;
    arch        "LSB;label=32;scalar=64";
    class       volVectorField;
    location    "0.4";
    object      U;
}
// * * * * * * * * * * * * * * * * * * * * * * * * * * * * * * * * * * * * * //

dimensions      [0 1 -1 0 0 0 0];

internalField   nonuniform List<vector> 
111542
(
(99.9932 0.00560664 0.00269059)
(99.9706 0.0113243 0.00570536)
(99.9288 0.0171238 0.0091069)
(99.8667 0.0231622 0.0133162)
(99.783 0.0291932 0.0186837)
(99.6759 0.0344491 0.025634)
(99.5446 0.0370754 0.0344212)
(99.3914 0.0341057 0.0455417)
(99.226 0.0209018 0.0595187)
(99.0682 -0.00894051 0.0764403)
(98.9512 -0.0610162 0.095856)
(98.9151 -0.132987 0.117037)
(98.9854 -0.206691 0.139204)
(99.152 -0.262447 0.160312)
(99.3696 -0.289681 0.178654)
(99.5894 -0.29807 0.193632)
(99.7849 -0.296524 0.204994)
(99.9491 -0.289646 0.213193)
(100.083 -0.280344 0.218759)
(100.19 -0.27067 0.222403)
(100.275 -0.262007 0.224468)
(100.34 -0.254704 0.22557)
(100.39 -0.248597 0.226375)
(100.43 -0.24408 0.226983)
(100.461 -0.241016 0.227646)
(100.487 -0.239004 0.228673)
(100.508 -0.238167 0.229861)
(100.525 -0.238332 0.231199)
(100.538 -0.239119 0.23278)
(100.548 -0.240311 0.234516)
(100.556 -0.241783 0.23628)
(100.562 -0.24349 0.23792)
(100.566 -0.245207 0.23951)
(100.569 -0.246866 0.241008)
(100.571 -0.248464 0.242337)
(100.574 -0.250027 0.243427)
(100.577 -0.251633 0.24417)
(100.582 -0.253163 0.24468)
(100.589 -0.254662 0.24497)
(100.602 -0.256361 0.245096)
(99.9935 0.0166964 0.00264202)
(99.9713 0.0336671 0.00553132)
(99.93 0.0512818 0.00890178)
(99.8684 0.0699295 0.0130706)
(99.784 0.0890457 0.0183821)
(99.6736 0.106576 0.0252536)
(99.5342 0.117626 0.0341294)
(99.3652 0.113399 0.0455372)
(99.173 0.0792778 0.0599752)
(98.9765 -0.00576948 0.0776393)
(98.8167 -0.158975 0.0984032)
(98.7594 -0.373618 0.120518)
(98.8483 -0.597108 0.14447)
(99.0605 -0.757619 0.167448)
(99.3228 -0.836825 0.18711)
(99.5708 -0.864635 0.202635)
(99.781 -0.863028 0.214171)
(99.9524 -0.845079 0.222312)
(100.089 -0.819929 0.227753)
(100.195 -0.793004 0.231152)
(100.277 -0.767777 0.233055)
(100.339 -0.746924 0.234173)
(100.387 -0.730636 0.235)
(100.423 -0.718505 0.235735)
(100.453 -0.708698 0.236562)
(100.476 -0.70021 0.237628)
(100.496 -0.693546 0.238931)
(100.512 -0.688889 0.240437)
(100.524 -0.685916 0.242102)
(100.534 -0.684394 0.243846)
(100.541 -0.684184 0.245583)
(100.547 -0.685186 0.247247)
(100.551 -0.687064 0.248821)
(100.553 -0.689646 0.250275)
(100.555 -0.692852 0.251564)
(100.557 -0.696638 0.252651)
(100.56 -0.70101 0.253497)
(100.563 -0.705736 0.254111)
(100.569 -0.710741 0.25451)
(100.58 -0.716025 0.254818)
(99.9938 0.0273607 0.00251491)
(99.9727 0.0552758 0.00525434)
(99.9331 0.0850135 0.00847748)
(99.8729 0.117448 0.012485)
(99.7884 0.152345 0.017634)
(99.6734 0.187412 0.0243847)
(99.5205 0.216369 0.0332954)
(99.3223 0.225606 0.0450286)
(99.0763 0.188496 0.0602962)
(98.7997 0.0566425 0.079687)
(98.5521 -0.278359 0.103528)
(98.4448 -0.740033 0.131184)
(98.5719 -1.1563 0.157098)
(98.8784 -1.39296 0.181857)
(99.2219 -1.48808 0.202499)
(99.5186 -1.51457 0.218197)
(99.7569 -1.49682 0.229357)
(99.9425 -1.45704 0.236794)
(100.084 -1.40973 0.241414)
(100.189 -1.36163 0.243926)
(100.267 -1.3182 0.244738)
(100.323 -1.27929 0.245018)
(100.364 -1.25417 0.245401)
(100.398 -1.24128 0.246034)
(100.426 -1.23353 0.246934)
(100.45 -1.22772 0.248062)
(100.468 -1.22366 0.249356)
(100.482 -1.22136 0.250742)
(100.492 -1.22048 0.252145)
(100.499 -1.22074 0.253512)
(100.503 -1.222 0.254811)
(100.506 -1.22412 0.256034)
(100.506 -1.22697 0.257195)
(100.504 -1.23047 0.25831)
(100.502 -1.23459 0.259384)
(100.499 -1.23933 0.260408)
(100.496 -1.24472 0.261357)
(100.494 -1.2507 0.262209)
(100.495 -1.25706 0.262985)
(100.498 -1.26325 0.263868)
(99.9945 0.0371126 0.00231581)
(99.9755 0.0753614 0.00483308)
(99.9395 0.117106 0.00780144)
(99.8835 0.164401 0.0115172)
(99.8022 0.218465 0.0163422)
(99.6861 0.278803 0.022761)
(99.521 0.341198 0.0314162)
(99.2863 0.393085 0.0431269)
(98.9533 0.404755 0.058896)
(98.4587 0.202472 0.079889)
(98.204 0.0224061 0.0864546)
(97.8636 -0.632718 0.101746)
(97.9342 -1.43117 0.115491)
(98.4141 -1.94012 0.127608)
(98.9124 -2.08729 0.139717)
(99.3008 -2.11825 0.147958)
(99.612 -2.07983 0.152806)
(99.8446 -2.00536 0.155145)
(100.013 -1.92293 0.156003)
(100.136 -1.84724 0.156174)
(100.293 -1.89618 0.251669)
(100.334 -1.82242 0.252889)
(100.351 -1.76587 0.253525)
(100.364 -1.72756 0.254305)
(100.38 -1.69996 0.255556)
(100.392 -1.68072 0.257069)
(100.398 -1.6688 0.258566)
(100.398 -1.66282 0.25986)
(100.394 -1.66146 0.260864)
(100.385 -1.66373 0.261574)
(100.372 -1.66885 0.262057)
(100.354 -1.67617 0.262422)
(100.333 -1.68513 0.262785)
(100.309 -1.69532 0.263239)
(100.283 -1.70643 0.263839)
(100.254 -1.7183 0.264589)
(100.225 -1.73088 0.265437)
(100.196 -1.74414 0.266302)
(100.17 -1.75785 0.267126)
(100.14 -1.77055 0.268056)
(99.9956 0.0452051 0.0020445)
(99.9802 0.0923066 0.00425951)
(99.9505 0.144987 0.00686335)
(99.9034 0.207043 0.0101268)
(99.8324 0.282295 0.0143868)
(99.7261 0.374464 0.0200948)
(99.5649 0.486324 0.0278758)
(99.3164 0.616461 0.0385517)
(98.8758 0.751352 0.0531823)
(98.5335 0.75689 0.0584672)
(97.7266 0.365072 0.0716281)
(96.9319 -0.701326 0.0884093)
(97.0359 -2.34447 0.102144)
(98.1602 -2.93438 0.112641)
(98.8709 -2.96025 0.126106)
(99.3323 -2.92147 0.131913)
(99.6933 -2.79998 0.131348)
(99.9333 -2.65491 0.128321)
(100.088 -2.51791 0.125959)
(100.183 -2.40497 0.125705)
(100.245 -2.3355 0.125727)
(100.173 -2.4591 0.248461)
(100.071 -2.43447 0.257076)
(99.9766 -2.39411 0.261459)
(99.8938 -2.35087 0.263295)
(99.8132 -2.3146 0.26298)
(99.7316 -2.28682 0.260603)
(99.6485 -2.26617 0.2564)
(99.5638 -2.2513 0.250804)
(99.4774 -2.24126 0.244394)
(99.3895 -2.23522 0.237798)
(99.3008 -2.23252 0.231594)
(99.2121 -2.2326 0.226223)
(99.1241 -2.23507 0.221943)
(99.0377 -2.23964 0.218825)
(98.9536 -2.24615 0.216763)
(98.8727 -2.25459 0.215496)
(98.7962 -2.26521 0.214674)
(98.7267 -2.2788 0.213932)
(98.6572 -2.29748 0.213078)
(99.9971 0.0507047 0.00170572)
(99.9868 0.10407 0.00354106)
(99.9669 0.165042 0.00567377)
(99.9344 0.239282 0.00831979)
(99.8837 0.333701 0.0117437)
(99.8046 0.457661 0.0162892)
(99.6775 0.624819 0.0224198)
(99.466 0.855401 0.0307128)
(99.0459 1.18062 0.0418595)
(98.6371 1.34021 0.0461947)
(97.685 1.47681 0.0441892)
(95.5874 0.698495 0.040463)
(94.4158 -3.4401 0.0545528)
(98.2293 -4.69529 0.0457128)
(98.7169 -3.8732 0.0513678)
(99.2918 -3.79992 0.0294563)
(99.7044 -3.54366 0.0271369)
(99.8893 -3.26465 0.0411974)
(99.936 -3.0398 0.0673519)
(99.8796 -2.86035 0.0972902)
(98.9153 -2.57956 0.0404751)
(95.1329 -2.30652 0.141874)
(95.2363 -2.35021 0.159592)
(95.36 -2.35635 0.167714)
(95.4656 -2.34768 0.169377)
(95.5511 -2.33912 0.166306)
(95.6206 -2.33491 0.159585)
(95.676 -2.33574 0.150127)
(95.719 -2.34157 0.138839)
(95.7523 -2.35197 0.1266)
(95.7793 -2.36618 0.114174)
(95.8032 -2.38329 0.102131)
(95.8267 -2.40242 0.0908063)
(95.8517 -2.42282 0.0803276)
(95.8793 -2.4439 0.0706548)
(95.9102 -2.46524 0.0616217)
(95.9446 -2.4866 0.0529763)
(95.9823 -2.50811 0.0444177)
(96.0221 -2.53063 0.0356669)
(96.0701 -2.55713 0.0268212)
(99.9989 0.052671 0.00135501)
(99.9952 0.108549 0.00274349)
(99.9877 0.173378 0.00431175)
(99.975 0.254087 0.00620642)
(99.9544 0.359791 0.00857464)
(99.9211 0.504166 0.011587)
(99.8666 0.709336 0.0154222)
(99.7763 1.01393 0.0201913)
(99.6014 1.4913 0.0257785)
(99.3317 1.88999 0.0280429)
(98.6079 2.82163 0.0252507)
(95.4589 5.79759 0.0173427)
(77.1798 -4.3486 0.0303909)
(102.796 -10.2978 0.0205821)
(48.5626 -1.71514 -1.28783)
(72.718 -3.67619 -0.169815)
(76.1921 -2.85117 -0.190108)
(79.1288 -2.56011 -0.174975)
(81.7903 -2.47369 -0.128131)
(84.274 -2.53671 -0.088752)
(91.583 -3.32596 -0.102714)
(96.0598 -3.22406 -0.208605)
(96.1472 -3.08477 -0.223481)
(96.2519 -2.98057 -0.233118)
(96.3407 -2.89918 -0.237136)
(96.4241 -2.83282 -0.235656)
(96.5117 -2.77894 -0.229475)
(96.6048 -2.73642 -0.219983)
(96.7013 -2.70414 -0.208831)
(96.7985 -2.68071 -0.197599)
(96.8948 -2.66463 -0.187589)
(96.989 -2.65435 -0.179719)
(97.0803 -2.64844 -0.174514)
(97.1685 -2.6456 -0.17214)
(97.2536 -2.64477 -0.172495)
(97.3361 -2.64507 -0.1753)
(97.4163 -2.64577 -0.180213)
(97.4944 -2.6462 -0.186872)
(97.5702 -2.64542 -0.194943)
(97.6592 -2.64123 -0.204008)
(100.001 0.0507157 0.0010071)
(100.004 0.104527 0.00192832)
(100.01 0.167455 0.00290076)
(100.02 0.246566 0.00398479)
(100.033 0.351167 0.00519815)
(100.054 0.495025 0.00650924)
(100.087 0.699704 0.00777842)
(100.149 1.00114 0.00861705)
(100.291 1.46171 0.00812727)
(100.337 1.87245 0.00794147)
(100.605 2.85805 0.00400753)
(102.406 5.39392 -0.00534787)
(111.125 3.97156 -0.0482268)
(109.157 -6.69818 0.0195433)
(102.813 -6.81868 -0.0299443)
(101.098 -4.98108 -0.0314046)
(100.638 -3.94339 -0.0349397)
(100.471 -3.3673 -0.043185)
(100.401 -3.03417 -0.0519206)
(100.348 -2.84502 -0.058668)
(100.266 -2.62184 -0.100404)
(100.309 -2.23087 -0.233226)
(100.292 -2.11703 -0.238199)
(100.279 -2.05063 -0.241127)
(100.268 -2.01361 -0.242733)
(100.255 -1.99166 -0.242944)
(100.244 -1.97908 -0.241718)
(100.234 -1.97344 -0.239361)
(100.226 -1.97285 -0.236375)
(100.218 -1.97568 -0.233292)
(100.212 -1.98071 -0.230593)
(100.207 -1.98702 -0.228659)
(100.202 -1.99392 -0.227759)
(100.199 -2.00087 -0.228031)
(100.197 -2.00743 -0.229519)
(100.195 -2.0132 -0.232188)
(100.196 -2.01781 -0.235976)
(100.198 -2.0207 -0.240796)
(100.203 -2.02084 -0.246535)
(100.215 -2.01587 -0.252891)
(100.003 0.0444645 0.000533062)
(100.013 0.0916756 0.00104819)
(100.032 0.146935 0.00148908)
(100.061 0.21631 0.00181408)
(100.106 0.307434 0.0019388)
(100.173 0.430601 0.00166917)
(100.277 0.600125 0.000611484)
(100.443 0.835631 -0.00196074)
(100.759 1.16178 -0.00737417)
(100.982 1.40198 -0.00947565)
(101.831 1.86217 -0.0168361)
(103.445 1.77564 -0.0303655)
(105.241 -0.222869 -0.0468653)
(104.799 -2.82456 -0.0278459)
(102.989 -3.55946 -0.0486586)
(101.755 -3.34065 -0.0651469)
(101.119 -2.97924 -0.0745729)
(100.784 -2.6709 -0.0798385)
(100.596 -2.43861 -0.082996)
(100.476 -2.26508 -0.0851649)
(100.392 -2.12498 -0.0867453)
(100.305 -1.84439 -0.241624)
(100.275 -1.80503 -0.240079)
(100.256 -1.77586 -0.238483)
(100.244 -1.75563 -0.237475)
(100.235 -1.74075 -0.236904)
(100.228 -1.72931 -0.236475)
(100.221 -1.72079 -0.236034)
(100.214 -1.71484 -0.23555)
(100.209 -1.71095 -0.235061)
(100.204 -1.70855 -0.234639)
(100.199 -1.70709 -0.234367)
(100.196 -1.70605 -0.234319)
(100.194 -1.70498 -0.23455)
(100.193 -1.70345 -0.235108)
(100.193 -1.70108 -0.236032)
(100.196 -1.69756 -0.237372)
(100.2 -1.69256 -0.239188)
(100.209 -1.68587 -0.241561)
(100.228 -1.67773 -0.244636)
(100.004 0.0344165 0.000251388)
(100.02 0.0710929 0.000410867)
(100.049 0.113871 0.000373704)
(100.095 0.167151 4.70319e-05)
(100.163 0.23606 -0.000725671)
(100.262 0.326532 -0.00225511)
(100.408 0.44494 -0.00506908)
(100.626 0.595833 -0.0100275)
(100.96 0.775516 -0.018509)
(101.445 0.860134 -0.0322324)
(102.084 0.763583 -0.0528334)
(102.761 0.235921 -0.0813347)
(103.12 -0.755121 -0.113901)
(102.872 -1.59147 -0.144505)
(102.225 -1.90047 -0.17594)
(101.59 -1.90414 -0.201174)
(101.143 -1.81426 -0.217862)
(100.856 -1.70454 -0.227909)
(100.669 -1.59995 -0.233596)
(100.539 -1.50682 -0.236397)
(100.451 -1.42561 -0.237246)
(100.394 -1.35342 -0.236788)
(100.355 -1.29496 -0.235948)
(100.327 -1.24785 -0.235312)
(100.306 -1.21166 -0.23502)
(100.289 -1.18477 -0.235015)
(100.274 -1.16508 -0.235228)
(100.262 -1.15093 -0.235623)
(100.251 -1.14107 -0.236183)
(100.241 -1.13442 -0.236894)
(100.232 -1.13007 -0.237751)
(100.225 -1.12724 -0.238746)
(100.219 -1.12534 -0.239871)
(100.214 -1.12384 -0.241112)
(100.211 -1.1223 -0.242468)
(100.21 -1.1204 -0.24394)
(100.211 -1.11786 -0.245551)
(100.214 -1.11448 -0.247342)
(100.22 -1.11022 -0.249386)
(100.231 -1.10534 -0.251799)
(100.005 0.0217918 1.32928e-05)
(100.025 0.0448894 -0.000117124)
(100.061 0.0718128 -0.000505866)
(100.117 0.104947 -0.0012814)
(100.199 0.147233 -0.00267501)
(100.316 0.201142 -0.00503089)
(100.48 0.268194 -0.00890669)
(100.708 0.345936 -0.0150846)
(101.017 0.421445 -0.0246423)
(101.416 0.455366 -0.0388142)
(101.88 0.391435 -0.0587567)
(102.309 0.154521 -0.0850648)
(102.53 -0.266487 -0.115639)
(102.412 -0.697581 -0.146127)
(102.021 -0.943158 -0.174349)
(101.561 -1.00233 -0.19703)
(101.183 -0.97171 -0.213221)
(100.913 -0.914955 -0.223646)
(100.723 -0.856129 -0.229907)
(100.584 -0.802149 -0.23327)
(100.483 -0.755791 -0.234642)
(100.409 -0.719984 -0.234734)
(100.355 -0.694844 -0.234247)
(100.315 -0.678205 -0.233597)
(100.285 -0.668064 -0.233038)
(100.262 -0.66285 -0.232707)
(100.244 -0.661108 -0.23266)
(100.229 -0.661704 -0.232889)
(100.217 -0.663861 -0.233349)
(100.208 -0.667019 -0.233981)
(100.2 -0.670709 -0.234726)
(100.193 -0.674559 -0.23553)
(100.188 -0.678259 -0.236343)
(100.185 -0.681606 -0.237134)
(100.184 -0.684148 -0.237915)
(100.184 -0.685888 -0.238667)
(100.187 -0.686755 -0.239408)
(100.192 -0.686686 -0.240199)
(100.201 -0.685702 -0.241156)
(100.219 -0.683809 -0.242527)
(100.006 0.00745611 -0.000132321)
(100.027 0.0153137 -0.000379959)
(100.066 0.0245043 -0.00098335)
(100.128 0.0356794 -0.00193679)
(100.217 0.0498905 -0.00366196)
(100.341 0.067708 -0.00643689)
(100.511 0.0891533 -0.010854)
(100.737 0.112753 -0.017579)
(101.028 0.133381 -0.0276857)
(101.376 0.138372 -0.0419118)
(101.748 0.107754 -0.0610035)
(102.067 0.0208566 -0.0850554)
(102.23 -0.118923 -0.112726)
(102.161 -0.264031 -0.141213)
(101.885 -0.356432 -0.167012)
(101.523 -0.385029 -0.188273)
(101.189 -0.378751 -0.204139)
(100.93 -0.362313 -0.214674)
(100.739 -0.344991 -0.221151)
(100.597 -0.329071 -0.22473)
(100.491 -0.315288 -0.226357)
(100.413 -0.304144 -0.226736)
(100.356 -0.295159 -0.22644)
(100.315 -0.28764 -0.22584)
(100.284 -0.280955 -0.225358)
(100.26 -0.274859 -0.22516)
(100.242 -0.269207 -0.225287)
(100.227 -0.263903 -0.225729)
(100.215 -0.258904 -0.226441)
(100.205 -0.254189 -0.227361)
(100.196 -0.249734 -0.228419)
(100.189 -0.245511 -0.22954)
(100.184 -0.241499 -0.23065)
(100.18 -0.237714 -0.231649)
(100.178 -0.233916 -0.232711)
(100.178 -0.230203 -0.233698)
(100.18 -0.226591 -0.234592)
(100.184 -0.22309 -0.235455)
(100.192 -0.219828 -0.236406)
(100.204 -0.217333 -0.237711)
(99.9936 0.00555847 0.00782182)
(99.9718 0.0111512 0.0164428)
(99.9315 0.0169211 0.0263973)
(99.8718 0.0229217 0.0387041)
(99.7916 0.0288992 0.0543586)
(99.6887 0.0340817 0.0745345)
(99.5624 0.0368003 0.100275)
(99.4153 0.0341192 0.132988)
(99.2563 0.0213786 0.173982)
(99.1046 -0.00773708 0.223619)
(98.9921 -0.0585462 0.281215)
(98.9587 -0.129526 0.344455)
(99.0287 -0.2011 0.409621)
(99.192 -0.254622 0.471302)
(99.4052 -0.280432 0.524759)
(99.6209 -0.288172 0.56818)
(99.8132 -0.286398 0.601283)
(99.9751 -0.27955 0.625281)
(100.107 -0.270365 0.641726)
(100.212 -0.26097 0.65242)
(100.294 -0.252421 0.658677)
(100.357 -0.245067 0.66209)
(100.404 -0.238907 0.664134)
(100.44 -0.234233 0.665382)
(100.468 -0.230966 0.666425)
(100.49 -0.228879 0.667867)
(100.507 -0.227884 0.669672)
(100.52 -0.227839 0.671998)
(100.531 -0.228503 0.675045)
(100.538 -0.229653 0.678707)
(100.545 -0.231115 0.682755)
(100.549 -0.232759 0.686904)
(100.553 -0.234465 0.691115)
(100.557 -0.236153 0.695185)
(100.56 -0.237779 0.698856)
(100.564 -0.239343 0.70188)
(100.569 -0.24085 0.703988)
(100.576 -0.24229 0.705178)
(100.584 -0.243704 0.70531)
(100.6 -0.245247 0.704234)
(99.9938 0.0165218 0.00765719)
(99.9725 0.0332192 0.0160185)
(99.9328 0.0506589 0.0258177)
(99.8735 0.0691102 0.0379613)
(99.7925 0.0880166 0.0534585)
(99.6864 0.105368 0.0735358)
(99.5522 0.116566 0.0995676)
(99.3896 0.112975 0.133151)
(99.2043 0.0801564 0.175803)
(99.0146 -0.00245102 0.228407)
(98.8595 -0.151514 0.290625)
(98.8055 -0.359396 0.359826)
(98.8944 -0.577956 0.431792)
(99.1019 -0.735643 0.499311)
(99.3579 -0.812369 0.556236)
(99.6001 -0.839293 0.601041)
(99.806 -0.83778 0.634419)
(99.9742 -0.820537 0.65808)
(100.108 -0.796339 0.673949)
(100.212 -0.770562 0.683823)
(100.291 -0.746537 0.689243)
(100.351 -0.726482 0.692129)
(100.396 -0.710594 0.693661)
(100.43 -0.698399 0.69437)
(100.456 -0.688299 0.694818)
(100.477 -0.679619 0.695615)
(100.494 -0.672728 0.697126)
(100.508 -0.667878 0.699534)
(100.518 -0.664909 0.702851)
(100.526 -0.663573 0.706917)
(100.533 -0.663648 0.711492)
(100.538 -0.664912 0.716322)
(100.542 -0.667092 0.721199)
(100.545 -0.669986 0.725893)
(100.548 -0.673442 0.730157)
(100.55 -0.67734 0.733758)
(100.554 -0.681619 0.73648)
(100.559 -0.686173 0.738174)
(100.566 -0.69089 0.738699)
(100.579 -0.695649 0.737998)
(99.9941 0.0270357 0.00728677)
(99.9739 0.0545822 0.0152329)
(99.9358 0.0839233 0.0246021)
(99.878 0.115913 0.0362887)
(99.7967 0.150338 0.0513537)
(99.6861 0.18499 0.0711582)
(99.5388 0.213779 0.0973941)
(99.3476 0.223391 0.132105)
(99.1098 0.18768 0.177509)
(98.8422 0.0590393 0.235495)
(98.6031 -0.268565 0.306613)
(98.4983 -0.72016 0.388019)
(98.6209 -1.12716 0.470691)
(98.9193 -1.35906 0.54655)
(99.254 -1.45226 0.607777)
(99.5434 -1.47877 0.654053)
(99.7766 -1.46207 0.687306)
(99.9581 -1.42373 0.709839)
(100.096 -1.37778 0.723963)
(100.197 -1.33098 0.731542)
(100.272 -1.28869 0.73356)
(100.326 -1.25066 0.733047)
(100.366 -1.22675 0.731698)
(100.398 -1.21472 0.729973)
(100.426 -1.20715 0.728244)
(100.448 -1.20115 0.727092)
(100.465 -1.19675 0.727059)
(100.478 -1.19409 0.728426)
(100.487 -1.19299 0.731204)
(100.493 -1.19319 0.73522)
(100.497 -1.19451 0.74018)
(100.5 -1.1968 0.74575)
(100.5 -1.1999 0.751594)
(100.499 -1.20367 0.757383)
(100.497 -1.20802 0.762801)
(100.494 -1.21292 0.767546)
(100.492 -1.21836 0.771331)
(100.49 -1.22429 0.773902)
(100.491 -1.23051 0.775103)
(100.497 -1.23634 0.775074)
(99.9948 0.0366447 0.00670943)
(99.9766 0.0743736 0.0140198)
(99.942 0.115507 0.0226656)
(99.8882 0.16207 0.033528)
(99.81 0.215264 0.0476939)
(99.6983 0.274612 0.0666166)
(99.5389 0.335963 0.0922668)
(99.3118 0.386934 0.12722)
(98.9888 0.398155 0.174709)
(98.5069 0.198858 0.238512)
(98.2533 0.0157179 0.2706)
(97.9188 -0.642304 0.34519)
(97.9895 -1.43592 0.424865)
(98.4628 -1.94736 0.499193)
(98.9489 -2.09644 0.558205)
(99.3277 -2.13149 0.601764)
(99.6321 -2.0979 0.63208)
(99.8604 -2.02723 0.651328)
(100.026 -1.94653 0.662256)
(100.146 -1.87054 0.667224)
(100.286 -1.89834 0.778184)
(100.325 -1.82127 0.77048)
(100.342 -1.76575 0.760404)
(100.357 -1.73041 0.751341)
(100.374 -1.70548 0.745156)
(100.387 -1.688 0.742397)
(100.394 -1.677 0.743037)
(100.395 -1.67135 0.74672)
(100.391 -1.66995 0.752843)
(100.381 -1.672 0.760687)
(100.367 -1.6768 0.769543)
(100.348 -1.68374 0.778773)
(100.326 -1.69223 0.78785)
(100.3 -1.70182 0.796342)
(100.271 -1.71215 0.803892)
(100.241 -1.72303 0.810183)
(100.21 -1.73436 0.81489)
(100.179 -1.74618 0.817679)
(100.151 -1.75831 0.818261)
(100.122 -1.76941 0.816606)
(99.9958 0.0445984 0.0059215)
(99.9811 0.091024 0.0123638)
(99.9527 0.142877 0.0199685)
(99.9076 0.203878 0.0295402)
(99.8393 0.277752 0.0420994)
(99.7369 0.368104 0.0590358)
(99.581 0.477545 0.0823101)
(99.3396 0.604456 0.114601)
(98.9094 0.735015 0.159452)
(98.5702 0.735305 0.184896)
(97.7746 0.341912 0.249409)
(96.9892 -0.719949 0.332985)
(97.0923 -2.34742 0.427883)
(98.2006 -2.93857 0.509539)
(98.8912 -2.96331 0.565726)
(99.336 -2.93481 0.604226)
(99.6878 -2.83022 0.626514)
(99.9244 -2.70109 0.63598)
(100.079 -2.57437 0.63791)
(100.174 -2.46531 0.635571)
(100.239 -2.38684 0.629181)
(100.139 -2.53587 0.695137)
(100.029 -2.51655 0.664202)
(99.9292 -2.48314 0.63456)
(99.8438 -2.44475 0.612085)
(99.7614 -2.40981 0.598693)
(99.6785 -2.38004 0.594034)
(99.5946 -2.35504 0.596709)
(99.5095 -2.33465 0.604799)
(99.4227 -2.31884 0.616253)
(99.3345 -2.30745 0.629193)
(99.2454 -2.30009 0.642094)
(99.156 -2.29628 0.653843)
(99.0671 -2.29552 0.663712)
(98.9795 -2.2973 0.671271)
(98.8942 -2.30121 0.676266)
(98.812 -2.307 0.678456)
(98.7344 -2.31478 0.677545)
(98.6643 -2.32532 0.673163)
(98.5959 -2.34076 0.665203)
(99.9973 0.0500183 0.00491724)
(99.9876 0.102563 0.0102701)
(99.9686 0.162508 0.0165271)
(99.9376 0.235391 0.0243263)
(99.8891 0.327941 0.0344819)
(99.8129 0.449253 0.0480844)
(99.6898 0.612564 0.0666383)
(99.4835 0.837435 0.0921764)
(99.0702 1.15398 0.127331)
(98.6637 1.30946 0.148303)
(97.7164 1.43954 0.177242)
(95.631 0.655223 0.232962)
(94.4671 -3.47025 0.33432)
(98.2889 -4.70244 0.425163)
(98.7592 -3.85047 0.453839)
(99.2796 -3.83194 0.489403)
(99.6571 -3.65168 0.501119)
(99.8194 -3.43414 0.508953)
(99.8534 -3.23089 0.526899)
(99.7975 -3.03134 0.54733)
(98.9389 -2.62853 0.471262)
(95.1663 -2.47744 0.273084)
(95.2376 -2.53406 0.252456)
(95.3181 -2.54439 0.240831)
(95.381 -2.5327 0.240228)
(95.4313 -2.51556 0.249086)
(95.4773 -2.49928 0.26386)
(95.5217 -2.48673 0.280869)
(95.5646 -2.47959 0.297173)
(95.606 -2.47842 0.310805)
(95.6464 -2.48273 0.320729)
(95.6862 -2.49141 0.326683)
(95.726 -2.50311 0.328851)
(95.7661 -2.51655 0.327701)
(95.8066 -2.53063 0.323753)
(95.8477 -2.54459 0.317407)
(95.8892 -2.55799 0.308803)
(95.9311 -2.57096 0.297721)
(95.9729 -2.58452 0.283448)
(96.0238 -2.60202 0.264542)
(99.9991 0.0519585 0.00392758)
(99.9957 0.10693 0.00798572)
(99.9888 0.170605 0.0126002)
(99.977 0.24976 0.0182075)
(99.9577 0.35327 0.0252747)
(99.926 0.494442 0.0343669)
(99.8735 0.694811 0.046153)
(99.7851 0.99209 0.0612319)
(99.6115 1.45809 0.0796937)
(99.3421 1.85049 0.090701)
(98.6179 2.76912 0.102451)
(95.4615 5.70531 0.123232)
(77.3469 -4.56175 0.251329)
(56.8642 -5.36119 -1.18495)
(75.7067 -4.83705 -0.462866)
(78.6847 -3.76343 -0.562021)
(81.0062 -3.25232 -0.703799)
(82.9719 -2.9708 -0.774591)
(84.7684 -2.85452 -0.72474)
(91.0848 -3.40208 -0.41403)
(96.2033 -3.384 -0.486799)
(96.3372 -3.25002 -0.453497)
(96.4694 -3.1438 -0.429878)
(96.5673 -3.05829 -0.417235)
(96.6449 -2.98777 -0.413665)
(96.717 -2.93028 -0.416514)
(96.7898 -2.88483 -0.423272)
(96.8654 -2.85021 -0.4318)
(96.9442 -2.82483 -0.440485)
(97.0262 -2.80693 -0.448327)
(97.1108 -2.79469 -0.454879)
(97.197 -2.78643 -0.460122)
(97.2836 -2.78065 -0.464311)
(97.3695 -2.77617 -0.467859)
(97.4537 -2.77208 -0.471256)
(97.5352 -2.76766 -0.475098)
(97.6132 -2.76231 -0.480079)
(97.6866 -2.75522 -0.487078)
(97.7697 -2.74448 -0.496986)
(100.001 0.0498778 0.00279443)
(100.004 0.102825 0.00552771)
(100.011 0.164633 0.00844445)
(100.02 0.242187 0.0117066)
(100.034 0.344563 0.015392)
(100.055 0.485152 0.0194627)
(100.088 0.684969 0.0235897)
(100.148 0.979151 0.0267701)
(100.286 1.42899 0.0264778)
(100.33 1.83358 0.0253272)
(100.592 2.80728 0.0155799)
(102.368 5.32767 -0.0172426)
(110.956 4.07755 -0.0406039)
(109.039 -6.52414 -0.179423)
(102.784 -6.7484 -0.331158)
(101.127 -4.96239 -0.401766)
(100.687 -3.97515 -0.439538)
(100.528 -3.43441 -0.463972)
(100.46 -3.12055 -0.479538)
(100.404 -2.93605 -0.487249)
(100.301 -2.68795 -0.549275)
(100.331 -2.31202 -0.693031)
(100.308 -2.20064 -0.676965)
(100.287 -2.13392 -0.658327)
(100.269 -2.09529 -0.642105)
(100.25 -2.07148 -0.629721)
(100.235 -2.0575 -0.621355)
(100.222 -2.05124 -0.616988)
(100.212 -2.05083 -0.616378)
(100.205 -2.05446 -0.619)
(100.2 -2.06063 -0.624184)
(100.196 -2.06813 -0.631234)
(100.195 -2.07603 -0.639518)
(100.194 -2.0836 -0.648496)
(100.195 -2.09026 -0.657831)
(100.196 -2.09553 -0.667369)
(100.199 -2.09894 -0.677175)
(100.203 -2.09989 -0.687502)
(100.209 -2.09733 -0.698712)
(100.223 -2.08911 -0.710807)
(100.003 0.0436991 0.00159401)
(100.013 0.0901521 0.00311769)
(100.031 0.144406 0.00445746)
(100.061 0.212391 0.0055007)
(100.105 0.301546 0.00599123)
(100.171 0.421875 0.00537375)
(100.271 0.587331 0.0025446)
(100.433 0.817058 -0.00456744)
(100.741 1.13514 -0.0198173)
(100.961 1.37098 -0.0302864)
(101.794 1.82286 -0.0665396)
(103.389 1.73115 -0.134633)
(105.161 -0.248167 -0.233802)
(104.72 -2.82026 -0.350512)
(102.946 -3.56181 -0.451218)
(101.736 -3.34676 -0.521547)
(101.112 -2.99287 -0.56571)
(100.785 -2.69134 -0.590823)
(100.602 -2.46364 -0.603704)
(100.486 -2.29324 -0.608951)
(100.404 -2.15299 -0.608442)
(100.314 -1.85022 -0.748625)
(100.285 -1.80958 -0.737218)
(100.264 -1.78021 -0.725396)
(100.25 -1.76005 -0.715326)
(100.24 -1.74551 -0.707543)
(100.232 -1.73477 -0.70202)
(100.225 -1.72726 -0.698606)
(100.219 -1.7224 -0.697044)
(100.213 -1.7195 -0.696984)
(100.209 -1.71779 -0.698065)
(100.205 -1.71661 -0.699963)
(100.202 -1.71537 -0.702421)
(100.199 -1.71357 -0.705234)
(100.198 -1.71079 -0.708323)
(100.198 -1.70669 -0.711698)
(100.2 -1.70098 -0.715479)
(100.204 -1.69336 -0.719893)
(100.211 -1.68371 -0.725238)
(100.227 -1.67259 -0.731778)
(100.004 0.0338896 0.000714793)
(100.019 0.0699165 0.00118633)
(100.048 0.111873 0.00115639)
(100.093 0.16409 0.000339859)
(100.16 0.231483 -0.00177419)
(100.256 0.319869 -0.00608024)
(100.398 0.435451 -0.0140858)
(100.611 0.582647 -0.0282761)
(100.935 0.757712 -0.0526484)
(101.407 0.840514 -0.0926954)
(102.031 0.745863 -0.153975)
(102.694 0.228373 -0.240902)
(103.046 -0.73949 -0.346651)
(102.801 -1.56082 -0.461043)
(102.169 -1.86601 -0.559305)
(101.55 -1.8688 -0.630732)
(101.114 -1.7799 -0.677096)
(100.836 -1.67218 -0.704866)
(100.654 -1.56956 -0.720246)
(100.528 -1.47816 -0.727282)
(100.444 -1.39863 -0.728331)
(100.389 -1.32749 -0.724681)
(100.352 -1.27058 -0.719816)
(100.325 -1.22473 -0.715048)
(100.305 -1.18913 -0.710678)
(100.29 -1.16245 -0.706991)
(100.278 -1.14298 -0.704313)
(100.267 -1.12924 -0.70285)
(100.257 -1.11999 -0.702636)
(100.248 -1.11412 -0.703578)
(100.24 -1.11063 -0.705504)
(100.233 -1.10864 -0.708193)
(100.227 -1.10745 -0.711419)
(100.221 -1.10648 -0.714962)
(100.217 -1.10524 -0.71868)
(100.214 -1.10336 -0.722495)
(100.214 -1.10052 -0.726426)
(100.215 -1.09649 -0.730581)
(100.219 -1.09126 -0.735135)
(100.228 -1.08516 -0.740178)
(100.005 0.0214067 3.5058e-05)
(100.024 0.0441102 -0.000272729)
(100.06 0.0705015 -0.00126837)
(100.115 0.103033 -0.00336321)
(100.195 0.144365 -0.00726021)
(100.309 0.197053 -0.013961)
(100.468 0.262583 -0.0250574)
(100.69 0.338621 -0.0428754)
(100.99 0.41244 -0.0706014)
(101.379 0.445752 -0.112093)
(101.83 0.383156 -0.171095)
(102.248 0.150736 -0.249327)
(102.464 -0.263222 -0.342445)
(102.35 -0.685452 -0.438824)
(101.967 -0.923373 -0.524861)
(101.518 -0.979111 -0.590997)
(101.15 -0.947781 -0.636576)
(100.886 -0.891638 -0.665744)
(100.7 -0.833744 -0.683213)
(100.565 -0.780696 -0.692494)
(100.466 -0.735277 -0.696026)
(100.396 -0.700435 -0.695709)
(100.345 -0.67595 -0.693586)
(100.308 -0.659457 -0.69072)
(100.281 -0.649244 -0.687694)
(100.261 -0.643962 -0.684999)
(100.246 -0.642272 -0.683011)
(100.235 -0.643059 -0.681915)
(100.225 -0.645526 -0.681718)
(100.218 -0.64906 -0.682313)
(100.211 -0.653125 -0.683528)
(100.206 -0.657281 -0.68517)
(100.201 -0.661153 -0.687049)
(100.197 -0.664453 -0.689005)
(100.195 -0.666905 -0.690974)
(100.193 -0.668367 -0.692887)
(100.194 -0.668727 -0.694765)
(100.197 -0.667952 -0.696737)
(100.203 -0.666097 -0.699027)
(100.216 -0.663335 -0.70196)
(100.006 0.00730939 -0.000319507)
(100.026 0.0150513 -0.00101689)
(100.065 0.0240248 -0.00256463)
(100.125 0.0350158 -0.00526704)
(100.211 0.048855 -0.0100982)
(100.332 0.0662342 -0.0179392)
(100.497 0.0871843 -0.0303882)
(100.717 0.110282 -0.0496184)
(101 0.130392 -0.078555)
(101.338 0.135333 -0.119931)
(101.7 0.105563 -0.176188)
(102.011 0.0209508 -0.247649)
(102.17 -0.115225 -0.330425)
(102.102 -0.256625 -0.415766)
(101.832 -0.345841 -0.49326)
(101.477 -0.373142 -0.555585)
(101.15 -0.36666 -0.600466)
(100.897 -0.350347 -0.630132)
(100.71 -0.33324 -0.648427)
(100.571 -0.317521 -0.658582)
(100.468 -0.303971 -0.663091)
(100.394 -0.293089 -0.663885)
(100.341 -0.284271 -0.662597)
(100.304 -0.276785 -0.660398)
(100.278 -0.270167 -0.658213)
(100.259 -0.264201 -0.656497)
(100.245 -0.25873 -0.655487)
(100.234 -0.253651 -0.655304)
(100.225 -0.248921 -0.655952)
(100.218 -0.244515 -0.657339)
(100.211 -0.240394 -0.65931)
(100.205 -0.23651 -0.661673)
(100.2 -0.232815 -0.664228)
(100.195 -0.229256 -0.666756)
(100.191 -0.225753 -0.669378)
(100.189 -0.222283 -0.671869)
(100.188 -0.21883 -0.674193)
(100.189 -0.215401 -0.67646)
(100.194 -0.21213 -0.678874)
(100.202 -0.209562 -0.681728)
(99.994 0.00544271 0.0123186)
(99.9735 0.0109018 0.0257548)
(99.9359 0.0165485 0.041507)
(99.8803 0.0224272 0.0609905)
(99.8057 0.0283056 0.0857721)
(99.7101 0.0334746 0.117734)
(99.593 0.0364003 0.158916)
(99.4568 0.0343126 0.211605)
(99.3097 0.0227972 0.277887)
(99.1698 -0.00406031 0.358745)
(99.067 -0.0515842 0.453428)
(99.0383 -0.117645 0.557967)
(99.1067 -0.184595 0.664912)
(99.2628 -0.234318 0.765824)
(99.4658 -0.257907 0.853089)
(99.6713 -0.264669 0.923785)
(99.855 -0.262608 0.978141)
(100.01 -0.255855 1.01815)
(100.137 -0.246952 1.04631)
(100.237 -0.237982 1.06525)
(100.315 -0.229888 1.07734)
(100.373 -0.22286 1.08498)
(100.417 -0.217039 1.09027)
(100.448 -0.212834 1.09446)
(100.472 -0.210141 1.09818)
(100.489 -0.208557 1.10179)
(100.503 -0.207798 1.10547)
(100.513 -0.207672 1.10947)
(100.52 -0.207994 1.11394)
(100.526 -0.208598 1.11888)
(100.531 -0.209364 1.12419)
(100.535 -0.21022 1.1297)
(100.539 -0.211105 1.13527)
(100.542 -0.211982 1.14067)
(100.547 -0.212824 1.14565)
(100.551 -0.213643 1.14992)
(100.557 -0.214462 1.15319)
(100.565 -0.215301 1.15522)
(100.574 -0.216209 1.15567)
(100.589 -0.217315 1.15414)
(99.9942 0.0161633 0.0120387)
(99.9742 0.0324624 0.0251662)
(99.9372 0.0494964 0.0406135)
(99.882 0.0675304 0.0598046)
(99.8067 0.0860675 0.0843707)
(99.7081 0.103262 0.116346)
(99.5837 0.114843 0.158101)
(99.4328 0.112656 0.212386)
(99.2611 0.0829926 0.28195)
(99.0851 0.00629671 0.368771)
(98.9421 -0.133647 0.472595)