/*--------------------------------*- C++ -*----------------------------------*\
| =========                 |                                                 |
| \\      /  F ield         | OpenFOAM: The Open Source CFD Toolbox           |
|  \\    /   O peration     | Version:  2306                                  |
|   \\  /    A nd           | Website:  www.openfoam.com                      |
|    \\/     M anipulation  |                                                 |
\*---------------------------------------------------------------------------*/
FoamFile
{
    version     2.0;
    format      ascii;
    arch        "LSB;label=32;scalar=64";
    class       volVectorField;
    location    "1.5";
    object      Force;
}
// * * * * * * * * * * * * * * * * * * * * * * * * * * * * * * * * * * * * * //

dimensions      [1 1 -2 0 0 0 0];

internalField   uniform (0 0 0);

boundaryField
{
    walls
    {
        type            calculated;
        value           uniform (0 0 0);
    }
    inlet
    {
        type            calculated;
        value           uniform (0 0 0);
    }
    outlet
    {
        type            calculated;
        value           uniform (0 0 0);
    }
    NASA
    {
        type            calculated;
        value           nonuniform List<vector> 
14179
(
(-0.0142965 -0.131511 5.83689e-06)
(-0.012745 -0.105392 4.06251e-06)
(-0.0665248 -0.538047 0.000586637)
(-0.100405 -0.807491 0.00223913)
(-0.0647998 -0.524655 0.000297348)
(-0.109468 -0.880252 0.00249597)
(0.219832 0.954645 -0.000289569)
(0.0945303 0.474421 -4.35508e-05)
(0.664028 3.25678 0.00400267)
(0.0984499 0.494141 -4.7382e-05)
(0.00048372 -0.00146228 1.9152e-07)
(-0.0178375 -0.145914 0.000418284)
(0.13105 0.654454 -0.00167293)
(-0.0355017 -0.32279 0.00104454)
(0.0621258 0.309994 -0.000767422)
(1.37892 0.930169 0.00282363)
(1.39457 0.924201 -0.000316902)
(0.0232504 0.130577 -4.12132e-05)
(0.166831 0.990024 -0.00011065)
(1.26272 0.83696 -0.00215156)
(-0.0168396 -0.235682 -9.16452e-06)
(-0.020946 -0.194813 -0.000124273)
(-0.0192643 -0.267528 -0.000235747)
(-0.00844055 -0.061518 2.43387e-06)
(-0.0129152 -0.106858 1.71145e-05)
(-0.00912313 -0.0664932 1.51188e-05)
(-0.0128919 -0.106166 0.000334922)
(-0.0151475 -0.108533 0.000353594)
(-0.0132295 -0.120818 0.000382066)
(-0.0154618 -0.212188 0.00368411)
(0.0470555 0.205496 1.96782e-05)
(0.0530452 0.250126 2.18407e-06)
(0.0570296 0.268912 -7.8475e-05)
(0.0464254 0.20223 -1.99515e-05)
(0.0576279 0.21137 4.05074e-06)
(0.0617415 0.226383 2.15272e-05)
(0.0285443 0.103558 2.69392e-06)
(0.031924 0.115771 1.37871e-05)
(-0.00223535 -0.0106156 0.000148324)
(-0.0129359 -0.0629441 0.000662567)
(0.171317 0.625625 -0.00121297)
(0.10032 0.361673 -0.000321072)
(0.0981302 0.492551 -5.04599e-05)
(-0.00577654 -0.0406593 3.06836e-06)
(-0.00526898 -0.0370805 -2.5132e-06)
(0.155347 0.780302 -8.91282e-05)
(-0.00986559 -0.0682511 0.000255513)
(0.0974832 0.486639 -0.000672801)
(0.0906589 0.452991 -0.000748536)
(0.108061 0.44151 -0.00034851)
(0.0846924 0.314837 -1.95131e-05)
(0.0843265 0.313471 -4.30102e-05)
(-0.0638567 1.55897 -0.000139954)
(1.38935 0.923709 -0.000737721)
(-0.0495399 1.21547 8.16829e-05)
(-0.00274915 1.35955 -0.000104603)
(0.0727506 1.10086 2.80114e-05)
(0.0713318 1.07747 -0.000189847)
(-0.00238232 1.06537 -1.26023e-05)
(0.0898342 0.353007 -1.58706e-05)
(0.178016 1.05576 -0.0001443)
(0.0073073 0.0265509 3.6591e-05)
(-0.0228146 0.566782 -0.000847318)
(0.912878 0.622942 0.0759339)
(-0.000731596 0.533014 -0.00109048)
(0.0269305 0.408861 -0.000717303)
(0.127601 0.746778 0.00680711)
(-0.0144285 -0.144397 8.45358e-06)
(-0.0142389 -0.131063 1.07975e-05)
(-0.0987231 -0.794084 0.0021976)
(-0.0112148 -0.0889773 4.12082e-06)
(-0.012722 -0.10521 8.47483e-06)
(1.31069 0.867743 -0.00287341)
(1.26212 0.835851 -0.00255588)
(0.347154 2.05814 -0.00632498)
(0.261724 1.54612 -0.00428359)
(-0.110932 -0.893163 0.00105339)
(-0.0568905 -0.354012 0.00103833)
(-0.0560355 -0.350928 0.00104236)
(-0.0432064 -0.253398 0.0007661)
(0.157713 0.680315 -0.00201291)
(0.177345 0.766702 -0.00221542)
(0.763983 1.3117 -5.42212e-05)
(0.764508 1.31061 -0.000327185)
(0.0940674 0.472045 -3.81417e-05)
(0.0867504 0.416673 -2.67526e-05)
(-6.70282e-05 -0.00189866 -9.54636e-07)
(0.00167291 0.00867988 -2.06925e-07)
(0.00170844 0.00888323 -2.12146e-06)
(-5.79965e-05 -0.00183601 1.85676e-07)
(0.0976884 0.490356 -2.55441e-05)
(0.0923109 0.476057 -3.51448e-05)
(-0.0200544 -0.163885 0.000495517)
(-0.013535 -0.0969705 0.000312388)
(-0.0204036 -0.145677 0.000438759)
(-0.0123684 -0.0852716 0.000292858)
(-0.0181944 -0.124768 0.000332593)
(0.0859097 0.428635 -0.00126842)
(-0.0200049 -0.181981 0.000533545)
(-0.024578 -0.337759 0.00121142)
(-0.0207437 -0.291331 0.000266584)
(0.0805884 0.402458 -0.00116217)
(1.37612 0.924189 -0.00268778)
(0.103955 0.612952 -7.0394e-05)
(0.11535 0.645147 -3.18054e-05)
(0.113956 0.637185 -7.28259e-05)
(0.190374 1.32545 -0.000135884)
(0.112871 0.669563 -5.50503e-05)
(0.169822 1.00759 -8.79104e-05)
(0.0174555 0.0164726 1.8953e-05)
(0.367325 -0.135363 0.00368432)
(0.376361 -0.149215 0.00177269)
(0.013829 0.0132832 -3.64322e-05)
(-0.00707816 -0.0302793 0.000157543)
(0.0209447 0.0771845 -0.000168302)
(0.00176966 0.00589581 5.17325e-05)
(0.0209219 0.0841441 -8.77564e-05)
(-0.00983242 -0.0438464 0.00014381)
(-0.00224081 -0.0122639 0.000114935)
(0.00383734 0.0159136 4.84969e-06)
(-0.0183452 -0.0886837 0.000258992)
(-0.00106223 0.730543 -0.00191019)
(0.0407367 0.608383 -0.00166244)
(-0.00155161 0.979449 -0.00261835)
(0.0317356 0.480376 -0.0016298)
(-0.0346134 0.865477 -0.00246307)
(1.09108 0.73394 -0.0021953)
(-0.0469081 1.16048 -0.00307174)
(0.109827 0.649903 -0.00280637)
(0.157349 0.616148 -0.00199609)
(0.118056 0.461657 -0.00125511)
(0.109071 0.397965 -0.00106071)
(0.154564 0.564671 -0.00151522)
(0.0636458 0.229624 -0.000609839)
(0.0869236 0.314145 -0.000912411)
(-0.0130137 -0.146655 3.31187e-07)
(-0.0167253 -0.233766 1.45992e-05)
(-0.01027 -0.07915 3.88274e-06)
(-0.00829322 -0.0604484 4.06058e-06)
(0.000466967 0.0010529 0.529049)
(-0.0129467 -0.101849 0.000326632)
(0.000438763 0.0010066 0.503022)
(-0.0144 -0.1097 0.000360657)
(0.000739987 0.00128813 0.572667)
(-0.0129435 -0.129206 0.000474625)
(0.000976766 0.00173353 0.573972)
(-0.012043 -0.138676 0.0012915)
(0.0528341 0.249119 -3.00227e-05)
(0.0393686 0.179053 -8.98699e-06)
(0.0396837 0.180507 -2.2048e-05)
(0.0466473 0.20316 -1.77346e-05)
(0.0459277 0.2023 -1.12086e-05)
(0.0461652 0.20336 -2.26111e-05)
(0.057588 0.211145 1.28846e-05)
(0.0242373 0.120556 -1.42015e-05)
(0.0217001 0.110107 -1.28564e-05)
(0.0291289 0.105646 1.03851e-05)
(0.0246932 0.0868768 1.85566e-06)
(-0.00662006 -0.0302683 0.000245776)
(-0.00557322 -0.0265188 0.000270863)
(0.000357097 0.000813207 0.32023)
(0.000359488 0.000777343 0.313585)
(0.000350301 0.000759545 0.309197)
(0.000306641 0.000773435 0.356113)
(0.0949757 0.323627 -3.66016e-05)
(0.161814 0.565787 0.00324825)
(-2.17622e-05 0.00082962 0.33701)
(0.00028201 0.000319358 0.306334)
(0.000121247 0.000280896 0.107984)
(0.0829026 0.291018 -0.000235008)
(0.285886 0.664145 -5.14334e-06)
(0.168072 0.592537 5.72325e-05)
(0.166373 0.586588 -3.61997e-05)
(0.0778796 0.363613 -1.8495e-05)
(0.0787417 0.367675 -2.48952e-05)
(0.131135 0.626236 -3.35799e-05)
(0.0790864 0.352085 -2.15306e-05)
(0.0819383 0.371782 -1.45001e-05)
(0.0821054 0.372497 -2.53408e-05)
(0.0801902 0.357074 -7.24872e-06)
(-0.00442946 -0.0313397 1.16345e-06)
(-0.00570512 -0.0401607 1.58963e-06)
(0.14847 0.786464 -3.47093e-05)
(0.262212 0.45222 0.0104913)
(0.000869711 0.00346906 0.855801)
(0.000348037 0.00171986 0.409121)
(0.0480237 0.139676 -4.77728e-05)
(-0.011873 -0.0740423 0.000324214)
(-0.0118554 -0.0748234 0.000469091)
(0.000847508 0.00190726 0.672437)
(0.000284621 0.000357578 0.30969)
(0.0965071 0.495323 0.000299762)
(0.000456348 0.000335015 0.373248)
(0.140349 0.737641 0.00433647)
(0.000492054 0.000988775 0.345493)
(0.000346038 0.000802627 0.326925)
(-0.000387108 0.000501251 0.349521)
(6.94988e-05 0.000389384 0.112442)
(0.0808475 0.386214 -0.000669544)
(0.103566 0.48113 0.000219087)
(0.000418818 0.000261311 0.205554)
(9.57322e-05 0.000485851 0.107815)
(0.170432 0.71624 0.000878784)
(0.0847115 0.314902 -2.46908e-05)
(0.0806885 0.308883 -2.45686e-05)
(0.0962621 0.392427 -3.87951e-05)
(0.0675498 0.272071 -1.10267e-05)
(-0.838485 2.6806 -0.0205712)
(-0.0539604 1.32156 -3.32175e-05)
(-0.169438 1.5837 0.000692888)
(0.0725611 1.09576 -0.000118438)
(0.0541149 1.158 -6.40279e-05)
(-0.00246625 1.14904 -2.55295e-05)
(0.0299057 1.13041 -4.47538e-05)
(0.104685 1.1495 -7.46523e-05)
(0.14434 1.86443 -9.83138e-05)
(0.139981 1.80749 -0.000136787)
(0.10528 1.15652 -7.4863e-05)
(0.113728 1.1622 -8.72088e-05)
(0.113338 1.05497 -9.9874e-06)
(0.118748 1.10544 -0.000108937)
(0.109637 1.12016 -1.20554e-05)
(0.0680656 0.282 2.88752e-06)
(0.0605204 0.240116 1.39993e-06)
(0.090625 0.356036 9.45844e-06)
(0.120616 0.81712 -0.000109255)
(0.123835 0.780027 -6.57846e-05)
(-0.000438222 0.000520409 0.562008)
(0.000776633 0.00283277 0.885015)
(0.000924809 0.00278841 0.000134714)
(0.000253114 0.00314417 0.732361)
(0.00187888 0.0063207 0.000125384)
(0.000387622 0.0101289 0.27313)
(-0.0602776 0.57842 -0.00142304)
(0.00731442 -0.00203558 1.74042)
(0.000316646 0.000664213 0.302822)
(0.0141299 0.516329 -0.00111518)
(0.000704072 0.000197157 0.244048)
(0.0231643 0.484804 -0.000919717)
(0.0612359 0.526838 -0.00111514)
(0.0610006 0.517308 -0.00107201)
(0.000334582 0.000542138 0.243381)
(0.00036184 0.000592831 0.267708)
(0.0573868 0.529434 -0.00101517)
(0.0521352 0.525929 -0.000720287)
(0.0471462 0.515996 0.000605027)
(2.15558e-05 -0.000484882 0.222214)
(-0.0191024 -0.104856 0.00123343)
(9.69091e-05 0.000985433 0.4989)
(0.0918503 0.510764 -0.000673918)
(0.000350251 0.000777348 0.318391)
(0.000353259 0.000782068 0.319892)
(0.480497 -0.191424 -0.00382219)
(0.22883 0.216365 0.00210582)
(0.00018057 0.000148994 0.0810603)
(-0.0533571 -0.524713 0.000982428)
(-0.0703116 -0.567933 0.00107109)
(-0.0554696 -0.544968 0.00128842)
(-0.070598 -0.570204 0.00109749)
(-0.0750383 -0.605416 0.00144118)
(-0.0584211 -0.573466 0.00150615)
(-0.0821326 -0.66184 0.0017502)
(0.180143 0.779627 -0.00225744)
(0.450548 2.20611 -0.00618045)
(0.183631 0.795136 -0.00229305)
(0.429855 2.10422 -0.00591923)
(-0.064982 -0.525992 0.000335678)
(-0.0424776 -0.264889 0.00075563)
(-0.10474 -0.842049 0.00234795)
(-0.0482752 -0.300592 0.000861547)
(1.39522 0.924655 -0.000700633)
(1.39518 0.924598 -0.000334486)
(0.233515 1.0138 -0.000353215)
(0.646527 3.17248 -0.00179423)
(0.603244 2.95947 -0.00103206)
(0.24042 1.04368 -0.000566536)
(0.453117 2.68645 -0.000981107)
(0.489308 2.90114 -0.00170305)
(-0.000153562 -0.00427199 3.84138e-06)
(0.000413705 -0.00138558 8.43554e-07)
(0.0230145 0.130314 -7.69013e-05)
(0.0235699 0.132966 -5.10024e-05)
(0.0474555 0.205814 -0.00046103)
(0.0346584 0.157281 -0.000349904)
(0.0575482 0.250386 -0.000601342)
(0.0264789 0.119226 -0.000231337)
(-0.108637 -0.874169 0.00248213)
(-0.0693046 -0.503601 0.00143309)
(0.0155387 0.0724501 -8.04219e-05)
(-0.0118963 -0.0657307 0.000246012)
(0.0642603 0.234318 -0.000693414)
(0.0722835 0.263541 -0.000756343)
(0.0349605 0.126019 -0.000374862)
(0.0404338 0.145741 -0.000418815)
(0.297552 1.3464 -0.000438133)
(0.180741 0.784288 -5.906e-05)
(0.334736 1.58308 -0.000557699)
(0.141151 0.708501 -0.000122064)
(-0.0184931 -0.155731 0.000176467)
(-0.0418942 -0.310794 0.000331342)
(-0.0068188 -0.0498623 -1.08754e-05)
(0.00130615 0.0029144 -2.18091e-06)
(-0.0175703 -0.120688 3.61472e-05)
(-0.0232994 -0.163407 8.63812e-05)
(0.0970554 0.396855 0.000128639)
(0.0839864 0.312235 -9.63462e-05)
(0.0841856 0.312957 -5.92743e-05)
(0.1085 0.445154 -0.000721203)
(0.165721 0.727958 -0.000224641)
(0.14226 0.655622 -7.12301e-05)
(0.173015 0.760582 -0.000229769)
(0.182213 0.849793 -8.36887e-05)
(-0.00293072 1.42324 -0.000128525)
(0.0669301 1.0084 -0.000345619)
(-0.0030898 1.4591 -0.00040204)
(0.0706427 1.06498 -0.000166141)
(-0.0665238 1.62502 -0.00015931)
(1.39234 0.924011 -0.00041242)
(-0.0686189 1.67645 -0.000446893)
(0.447246 3.83509 -0.00178206)
(0.0994138 0.390657 -6.824e-06)
(0.0901178 0.354114 -9.16122e-05)
(0.0686344 0.251658 -1.31197e-05)
(0.0639772 0.234593 1.58034e-05)
(0.0573887 0.300868 -0.000129333)
(0.184905 0.912731 -0.0011623)
(0.0224502 0.125222 -7.44154e-05)
(0.0479375 0.257281 -8.00756e-05)
(0.854056 5.34439 0.00233495)
(0.386345 2.58127 0.00043121)
(0.0377448 0.136867 -4.63245e-07)
(0.0335039 0.121509 1.41578e-05)
(1.24423 0.826614 -0.0010938)
(0.0900844 0.623699 -0.00177399)
(0.252176 0.236539 -0.000603872)
(0.496883 -0.206027 0.00020788)
(0.238956 0.224837 -0.00065495)
(0.51804 -0.215167 -4.89134e-05)
(0.0597209 0.218977 1.7913e-05)
(0.0276417 0.097196 1.44522e-05)
(0.0306635 0.111213 1.45363e-05)
(0.285918 0.664226 -2.33235e-05)
(0.275913 0.809942 -8.56175e-05)
(0.000714124 0.00216873 0.723914)
(0.000280486 0.00103453 0.360857)
(0.000452816 0.000347953 0.382573)
(-0.196958 1.8256 -0.000193711)
(-0.0595189 1.45484 -4.4681e-05)
(1.38501 0.924188 -0.00142999)
(0.0243851 0.0230351 2.69802e-05)
(0.366053 -0.150445 0.000139855)
(0.373754 -0.151952 0.00060303)
(0.0260809 0.0246064 2.11982e-05)
(0.000416563 0.00100241 0.540526)
(0.000331297 0.000508462 0.378471)
(0.000314424 0.000647069 0.340067)
(0.000508028 0.00101567 0.362851)
(-0.089518 -0.720698 0.00196407)
(1.34615 0.891313 -0.00296151)
(1.33123 0.881401 -0.00292585)
(1.30712 0.865396 -0.00286668)
(1.32977 0.880432 -0.00292289)
(0.399774 1.95589 -0.00551956)
(0.176868 0.764841 -0.00221673)
(0.178825 0.773791 -0.00224159)
(0.422084 2.06601 -0.005821)
(0.271104 1.60181 -0.00447371)
(0.290096 1.71434 -0.00474946)
(-0.0247222 -0.146074 0.000431785)
(-0.031579 -0.185739 0.000548387)
(-0.0557514 -0.346777 0.00100699)
(-0.0503219 -0.313197 0.000900693)
(-0.0413076 -0.242179 0.000723347)
(-0.0341338 -0.200519 0.000593426)
(0.253964 2.16049 -0.00591075)
(0.24081 2.04786 -0.00570586)
(0.0241562 0.089132 -0.000205611)
(0.0225152 0.0909008 -0.000237447)
(0.0339888 0.138127 -0.000136404)
(0.0321611 0.118911 -0.000300226)
(0.00116429 0.00389181 6.05108e-05)
(0.024685 0.105275 -0.000136758)
(0.0339749 0.146514 -0.000287641)
(0.0195043 0.0863476 -9.81317e-05)
(0.0400962 0.148435 -0.000390996)
(0.043981 0.17928 -0.000222302)
(0.034419 0.127313 -0.00032648)
(0.0426256 0.63632 -0.00172566)
(-0.0016362 1.02293 -0.00273424)
(-0.00182847 1.12797 -0.00301278)
(0.046984 0.701645 -0.0019074)
(-0.0543141 1.34249 -0.00356011)
(1.29734 0.858881 -0.00283546)
(-0.0568098 1.40381 -0.00372568)
(-0.0487465 1.20566 -0.003195)
(-0.0531058 1.31281 -0.00348138)
(1.29375 0.856499 -0.00282794)
(-0.00188286 1.15658 -0.00308872)
(0.0513315 0.767691 -0.00207938)
(-0.0019902 1.21301 -0.00324135)
(0.0483133 0.721984 -0.00193393)
(0.227259 1.3428 -0.00361079)
(0.412165 2.5645 -0.00920218)
(0.238245 1.58681 -0.00441928)
(0.248046 1.46465 -0.00414701)
(0.40638 2.53432 -0.00699054)
(0.378641 2.36039 -0.00665948)
(0.196342 1.30547 -0.00469337)
(-0.0812352 -0.596358 0.00128207)
(-0.101785 -0.819244 0.00236023)
(-0.066745 -0.443081 0.00127675)
(-0.0570533 -0.355497 0.00106386)
(-0.0802016 -0.537813 0.00145842)
(-0.0533455 -0.333219 0.00102256)
(-0.0248386 -0.138135 0.000449203)
(-0.0450656 -0.264714 0.000826359)
(0.00216619 0.00430175 0.000211855)
(-0.0477287 -0.281636 0.00087732)
(0.232478 1.04463 -0.00314599)
(0.180699 0.780755 -0.00223344)
(0.239445 1.12832 -0.00320701)
(0.178785 0.772732 -0.0022203)
(0.226824 1.02263 -0.00292733)
(0.242492 1.1417 -0.00361866)
(0.369565 1.80619 -0.00525551)
(0.106034 0.414566 -0.0011408)
(0.0900429 0.351964 -0.00100081)
(0.0960414 0.350325 -0.000952258)
(0.076009 0.277131 -0.000785491)
(0.0874838 0.341992 -0.000986126)
(0.0815369 0.318811 -0.000935202)
(0.0559085 0.201646 -0.000545265)
(0.0429918 0.154967 -0.000439189)
(0.119933 0.277983 -0.000727518)
(0.101372 0.234854 -0.000577945)
(-0.0207002 -0.156871 0.000481845)
(-0.0182532 -0.130536 0.000407223)
(0.0814596 0.416372 -0.00146887)
(0.08614 0.429973 -0.00119065)
(0.124406 0.656767 -0.00246899)
(-0.0191706 -0.189458 0.000487916)
(-0.019799 -0.18051 0.000538134)
(-0.0170851 -0.188002 0.00023963)
(-0.0210688 -0.292204 0.000787632)
(0.0773912 0.370416 -0.00118392)
(0.0820014 0.409368 -0.00112277)
(-0.00473327 -0.0198757 0.00010543)
(0.00519762 0.0198626 5.63161e-05)
(-0.00144923 -0.00633621 8.44508e-05)
(0.011946 0.0437123 -5.02606e-05)
(0.0176058 0.646099 -0.00171487)
(-0.00127862 0.844541 -0.00226597)
(0.0268119 0.565502 -0.00157825)
(0.0360343 0.539292 -0.00154506)
(-0.104477 0.993558 -0.00403482)
(-0.0409193 1.01512 -0.00274443)
(1.20837 0.806985 0.000440911)
(-0.451942 1.47096 -0.00351835)
(-0.0447799 1.10877 -0.0029534)
(-0.139633 1.29984 -0.00337538)
(-0.0121703 -0.0635619 0.000239085)
(-0.00908546 -0.0467002 0.000186079)
(-0.0108766 -0.0556679 0.000216549)
(-0.0103747 -0.0543808 0.000209368)
(-0.0249723 -0.137055 0.000316166)
(0.000760789 0.00130442 0.385417)
(0.0584391 0.393178 -0.00110663)
(0.0920456 0.637413 -0.00190362)
(0.0604429 0.406377 -0.00120522)
(0.12697 0.463427 -0.00121601)
(0.154751 0.565122 -0.00149036)
(0.0733666 0.264783 -0.000691121)
(0.0624369 0.21843 -0.000579246)
(0.0820664 0.287636 -0.000942369)
(0.0898811 0.32459 -0.000867179)
(0.452979 -0.189299 -0.00261047)
(0.215453 0.197859 0.000351329)
(0.263366 0.244967 -0.000424828)
(0.524535 -0.218833 -0.000878621)
(0.223481 0.968804 -0.00269676)
(0.580911 2.84703 -0.00771237)
(0.227146 0.984851 -0.00268335)
(0.554733 2.7185 -0.00744334)
(-0.0658052 -0.532392 0.000481319)
(-0.00146414 -0.0123047 1.58358e-05)
(-0.000936143 -0.00904697 1.00801e-05)
(0.216725 0.940476 -0.000824814)
(0.668133 3.27782 -0.00363854)
(0.228079 0.989967 -0.00106293)
(-0.0611398 -0.444479 0.00123873)
(0.177857 0.782206 -0.00041978)
(0.144704 0.667933 -0.000408841)
(0.178127 0.78343 -0.000483359)
(0.144577 0.667288 -0.00036021)
(0.0635091 0.23273 -0.000156473)
(0.0710256 0.260297 -0.000152459)
(-0.0326109 -0.239367 0.000138694)
(0.163904 0.811374 -0.000493077)
(0.0645806 0.339702 -0.000204931)
(0.0339567 0.123073 -8.38998e-05)
(0.0404639 0.146651 -8.60957e-05)
(1.39431 0.924132 -0.000296422)
(0.0272057 0.0255694 8.05852e-06)
(0.331118 -0.13741 3.10138e-06)
(0.0286858 0.026959 4.90104e-07)
(0.33569 -0.139248 -5.57804e-08)
(-0.0210121 -0.132702 0.000364603)
(-0.0235043 -0.14805 0.000410979)
(-0.04038 -0.251972 0.000717685)
(-0.0945178 -0.760556 0.00209207)
(-0.0352696 -0.220502 0.000624792)
(0.18548 0.803306 -0.00231444)
(0.196956 0.853763 -0.00244253)
(0.100594 0.44023 -0.00117162)
(0.0754067 0.346107 -0.000917291)
(0.104191 0.456093 -0.00121754)
(0.0720092 0.330374 -0.000871031)
(0.0416467 0.189762 -0.000453397)
(0.0661378 0.288298 -0.000716924)
(0.0730276 0.31869 -0.000810121)
(0.0475193 0.217001 -0.000537941)
(0.0581997 0.212895 -0.000659858)
(0.0565943 0.206885 -0.000640901)
(0.0624575 0.227771 -0.000679525)
(0.0585447 0.213597 -0.000648705)
(0.0132352 0.0675202 -0.000156507)
(0.0665353 0.326354 -0.000845571)
(-0.0687468 -0.499416 0.00141534)
(0.0230761 0.11018 -0.00020402)
(-0.00810321 -0.0454798 0.000179293)
(0.0301731 0.145585 -0.000314786)
(0.0315616 0.11418 -0.000359843)
(0.0301958 0.109155 -0.00034392)
(0.0337332 0.121607 -0.000365273)
(0.0311099 0.112202 -0.000344617)
(1.30951 0.866954 -0.00286801)
(1.27597 0.844759 -0.00271684)
(0.130451 0.122883 -0.000393346)
(0.362094 -0.150343 0.000256785)
(0.372263 -0.154564 0.000265719)
(0.11822 0.11135 -0.000360263)
(0.474424 -0.19674 0.0002865)
(0.222392 0.209456 -0.000635769)
(0.208139 0.196099 -0.000602167)
(0.454746 -0.188685 0.000289764)
(5.99406e-05 -0.014398 1.71474e-05)
(1.81907e-05 -0.0174133 2.6779e-05)
(-0.0526641 -0.518131 0.000811076)
(-0.000184359 -0.0322497 6.09569e-05)
(-0.000122611 -0.027783 4.31199e-05)
(-0.0688095 -0.556084 0.000877766)
(-0.054227 -0.532997 0.00116173)
(-9.72421e-05 -0.0257569 6.39118e-05)
(-5.06231e-05 -0.0223761 5.04345e-05)
(-0.072057 -0.581739 0.00126014)
(-0.0724084 -0.584529 0.00128297)
(3.72316e-05 -0.0157468 4.65475e-05)
(-0.0574972 -0.564552 0.001431)
(-0.000233223 -0.0356342 9.30209e-05)
(-0.0793779 -0.63992 0.00163304)
(1.36887 0.906472 -0.00294822)
(1.36548 0.904207 -0.00296592)
(1.3615 0.901541 -0.0029786)
(1.36709 0.905269 -0.00297213)
(0.212181 0.919989 -0.00257462)
(0.526277 2.57917 -0.0071296)
(0.545233 2.67201 -0.00732924)
(0.190319 0.82527 -0.00232932)
(0.180961 0.783301 -0.00226469)
(0.238229 1.07501 -0.00307163)
(0.269106 1.26944 -0.0035797)
(0.444003 2.17389 -0.00609793)
(0.182433 0.789808 -0.00228022)
(0.24557 1.10855 -0.00315418)
(0.258416 1.21865 -0.00345094)
(0.436445 2.13668 -0.00600879)
(1.38755 0.919505 -0.00134733)
(1.38821 0.919977 -0.00108327)
(1.39328 0.923365 -0.000752919)
(1.38958 0.920892 -0.00104331)
(0.499503 2.96155 -0.00199523)
(0.534887 3.17046 -0.00278674)
(-0.000327631 -0.00531198 4.8564e-06)
(-0.0655436 -0.53034 0.000443875)
(-0.00072273 -0.00773239 8.28863e-06)
(0.0217297 0.12288 -0.000135562)
(0.0222554 0.125941 -0.000116142)
(0.022837 0.129314 -8.50973e-05)
(0.0224796 0.127244 -0.000109101)
(0.238762 1.0364 -0.000668699)
(0.211833 0.919314 -0.00076738)
(0.63607 3.12004 -0.00265544)
(-0.0554985 -0.368743 0.00103718)
(-0.0443125 -0.276189 0.000788858)
(-0.0647359 -0.470396 0.00131837)
(-0.0463683 -0.288847 0.000826485)
(-0.0602739 -0.40016 0.00113211)
(0.4924 4.21532 -0.00217597)
(0.495088 4.23739 -0.00176227)
(0.0839133 0.311964 -0.000110224)
(0.108539 0.445345 0.00040999)
(0.108575 0.445509 -0.00078794)
(0.0837615 0.31141 -0.000148019)
(0.141226 0.651155 -0.000291326)
(0.17658 0.776437 -0.000296311)
(0.177618 0.781106 -0.000360504)
(0.144195 0.665362 -0.000311363)
(0.108507 0.445229 0.000337673)
(0.0835278 0.310552 -0.000197997)
(0.108379 0.444703 -0.000857096)
(0.0836805 0.311114 -0.000162075)
(0.0652789 0.984524 -0.000355572)
(-0.00305111 1.43666 -0.000460912)
(-0.00279693 1.30115 -0.000603792)
(0.0606632 0.916942 -0.000414245)
(-0.0630683 1.53959 -0.000749267)
(1.39522 0.924646 -0.0005562)
(-0.0619642 1.51282 -0.000912402)
(-0.0680753 1.66291 -0.000517822)
(-0.064368 1.57152 -0.000697992)
(1.39567 0.924941 -0.000492725)
(-0.00270433 1.25355 -0.000626527)
(0.054223 0.820261 -0.00050308)
(-0.0026704 1.23719 -0.000751578)
(0.0589033 0.890696 -0.000438479)
(0.31896 1.44319 -0.000478337)
(0.237644 1.03166 -0.000412341)
(0.640771 3.14414 -0.00145778)
(0.383084 1.81148 -0.00100791)
(0.348581 1.64833 -0.000515512)
(0.628186 3.08217 -0.00128364)
(0.239952 1.04165 -0.000491)
(0.343241 1.553 -0.000847045)
(0.0831401 0.326666 -0.000126887)
(0.0670318 0.263239 -0.000148585)
(0.0698691 0.256187 -2.34694e-05)
(0.0700354 0.256688 -0.000132622)
(0.0655142 0.257259 -0.000152539)
(0.749462 4.68869 -0.00206348)
(0.471662 2.79616 -0.00122916)
(0.768548 4.80953 -0.00211305)
(0.468013 3.13018 -0.00163606)
(0.463961 3.10226 -0.00134213)
(0.481014 2.85197 -0.00140087)
(-0.0306631 -0.225795 8.89958e-05)
(-0.0190625 -0.129271 7.67267e-05)
(-5.33584e-06 -0.0034403 2.73665e-06)
(-0.0181898 -0.124145 4.98845e-05)
(0.000102814 -0.00295606 2.34177e-06)
(0.0639605 0.335909 -0.000127007)
(0.161767 0.799936 -0.00030374)
(0.164082 0.811934 -0.00037411)
(0.0489599 0.263875 -0.000158006)
(0.0231296 0.130908 -6.83335e-05)
(0.0490821 0.264022 -0.000102236)
(0.0232367 0.131361 -5.88279e-05)
(0.0407989 0.147941 -6.50431e-06)
(0.0419806 0.152176 -8.16641e-05)
(0.066474 0.242374 -0.000711253)
(0.0689579 0.251413 -0.000730425)
(0.0324036 0.113246 -0.00033794)
(0.0364688 0.13145 -0.000387079)
(0.0383794 0.134134 -0.000384787)
(0.0381769 0.137601 -0.000400498)
(0.275545 0.808973 -0.000238027)
(0.275856 0.809795 -0.000150825)
(0.286687 0.666117 -0.000155559)
(0.286593 0.665884 -0.000133789)
(-0.202176 1.87364 -0.000234676)
(-0.0679836 1.66178 -0.000299197)
(1.39331 0.923839 -0.000318057)
(-0.879462 2.86015 -0.000642024)
(-0.0686367 1.67733 -0.000377193)
(-0.207372 1.92048 -0.000488976)
(0.067381 0.247095 2.15324e-06)
(0.0658764 0.241566 1.15675e-05)
(0.03626 0.131504 6.56189e-06)
(0.0337522 0.118679 4.09875e-06)
(0.0291042 0.102338 1.58439e-05)
(0.0349236 0.126657 1.14679e-05)
(0.413423 2.4463 -0.0066704)
(0.386281 2.2855 -0.00628649)
(-0.000257475 -0.00452112 2.53717e-05)
(-0.00308608 -0.0208907 7.13825e-05)
(-0.0278722 -0.174949 0.000490996)
(-0.0246209 -0.154926 0.000431137)
(-0.00802153 -0.0494496 0.000152671)
(-0.00437215 -0.0283322 9.21566e-05)
(1.34495 0.890524 -0.00295874)
(1.35515 0.897299 -0.0029766)
(1.36243 0.902149 -0.00298183)
(1.35591 0.89781 -0.00297712)
(-0.0222486 -0.131763 0.000390263)
(-0.0164406 -0.0981601 0.000292464)
(0.350744 2.07416 -0.00570462)
(0.376279 2.22606 -0.00612985)
(-0.0930276 -0.748676 0.00205485)
(-0.0293264 -0.183905 0.000517094)
(-0.0334919 -0.209555 0.000592812)
(-0.00969166 -0.0591135 0.000180055)
(-0.0143835 -0.0862589 0.000258293)
(0.199246 0.863756 -0.00245109)
(0.517229 2.53472 -0.0070393)
(0.191642 0.830925 -0.00234891)
(0.481996 2.3613 -0.00660265)
(0.283697 2.41435 -0.00662182)
(0.292079 2.4861 -0.00682787)
(0.0644766 0.263562 -0.000367465)
(0.052225 0.193569 -0.000525155)
(0.0550493 0.204078 -0.000555833)
(0.06053 0.247333 -0.000973398)
(0.0955586 0.418035 -0.00110672)
(0.063391 0.290485 -0.000755477)
(0.0911292 0.39851 -0.0010485)
(0.0674676 0.309351 -0.000811178)
(0.0583683 0.21643 -0.000591569)
(0.05599 0.207579 -0.000566267)
(0.0692918 0.283367 -0.000399729)
(-0.00230808 1.37569 -0.00367465)
(0.0576379 0.86256 -0.00233217)
(0.0589523 0.882347 -0.00238409)
(-0.00225389 1.34859 -0.00360291)
(-0.0640604 1.58171 -0.00419686)
(1.34202 0.888564 -0.00295107)
(-0.0647999 1.59974 -0.00424439)
(-0.00232707 1.38502 -0.00369806)
(0.0604298 0.904625 -0.00244185)
(-0.00235894 1.39836 -0.00373286)
(0.0593879 0.888909 -0.0024012)
(-0.063624 1.57102 -0.00416994)
(1.33889 0.886488 -0.00294381)
(-0.0624179 1.54146 -0.0040917)
(0.317959 2.70716 -0.00739056)
(0.312035 2.6565 -0.00725986)
(0.0418847 0.155092 -0.000411219)
(0.0461527 0.170973 -0.000458453)
(0.054015 0.220544 -0.000859569)
(0.0510143 0.189064 -0.000511988)
(0.0587171 0.239878 -0.000328326)
(0.0476037 0.176371 -0.000474306)
(0.0796434 0.347866 -0.000898792)
(0.0579955 0.265514 -0.000682617)
(0.0848868 0.370989 -0.000967879)
(0.0532486 0.243538 -0.000617093)
(-0.0574812 1.42023 -0.00377059)
(-0.0597467 1.47594 -0.00391672)
(1.31776 0.872456 -0.00289238)
(0.0521766 0.780436 -0.00211442)
(-0.00202421 1.22903 -0.00328544)
(-0.00212769 1.28462 -0.00343183)
(0.0545238 0.815701 -0.00220809)
(-0.00215942 1.30096 -0.00347554)
(0.0570735 0.854045 -0.00231012)
(0.0553243 0.827739 -0.00223941)
(-0.00222933 1.33695 -0.00357306)
(-0.0604162 1.49237 -0.00396057)
(1.32218 0.875389 -0.00290223)
(-0.0619327 1.52959 -0.00406157)
(0.0760094 0.297726 -0.000890815)
(0.076256 0.298556 -0.000893605)
(0.056085 0.204836 -0.000632283)
(0.0562411 0.205547 -0.000636634)
(0.0762763 0.298954 -0.00089327)
(0.242535 1.14317 -0.00325273)
(0.406961 1.99142 -0.00564647)
(0.22809 1.02855 -0.00294818)
(0.176941 0.765333 -0.00222579)
(0.177977 0.769978 -0.00223504)
(0.235281 1.06156 -0.00303649)
(0.415115 2.03167 -0.00572668)
(0.254199 1.19864 -0.00339993)
(0.0776815 0.303898 -0.000904171)
(0.0772849 0.302395 -0.000901491)
(0.0762789 0.298598 -0.000893372)
(0.0561732 0.205112 -0.00063207)
(0.0577235 0.210641 -0.000642704)
(0.264373 1.76108 -0.00487053)
(0.421357 2.62815 -0.00729053)
(0.27734 1.63871 -0.00455424)
(0.284055 1.67854 -0.00466184)
(0.452316 2.82174 -0.00779658)
(0.442507 2.76049 -0.00763759)
(0.27113 1.80624 -0.00498049)
(-0.00234208 -0.0154589 7.33066e-05)
(-0.0268357 -0.158302 0.000467371)
(0.050104 0.244707 -0.000608992)
(0.00509774 0.0244828 -3.14973e-05)
(-0.0292989 -0.172551 0.000509254)
(-0.010077 -0.0575085 0.00019614)
(-0.0659651 -0.437742 0.00125381)
(-0.0540024 -0.33591 0.000971843)
(-0.0659108 -0.478855 0.00134607)
(-0.0522115 -0.324842 0.000935433)
(-0.0618857 -0.410772 0.00116581)
(0.463648 2.89264 -0.0079829)
(0.473022 2.95129 -0.00813374)
(0.294757 1.96418 -0.00539083)
(0.288761 1.9241 -0.00528674)
(-0.0219755 -0.122352 0.000393569)
(-0.0388977 -0.228136 0.000677313)
(0.0434376 0.211576 -0.000511504)
(0.00177754 0.00691996 1.99297e-05)
(0.0371698 0.18041 -0.000420361)
(-0.0364837 -0.214129 0.000633552)
(-0.0131183 -0.0740452 0.000245034)
(0.0295664 0.106763 -0.000334871)
(0.0298786 0.107978 -0.000340133)
(0.0296019 0.106863 -0.000334416)
(0.0305571 0.110231 -0.000340571)
(0.116064 0.339789 -0.000892818)
(0.141744 0.415189 -0.00112555)
(0.189304 0.439105 -0.00123831)
(0.183972 0.426727 -0.0012014)
(0.156658 0.363315 -0.00101106)
(0.164772 0.382162 -0.00107128)
(0.148697 0.435612 -0.00118791)
(-0.596902 1.94422 -0.00492317)
(1.30403 0.863322 -0.00285104)
(-0.0560802 1.38589 -0.00367707)
(-0.167545 1.55872 -0.0040901)
(-0.569317 1.85455 -0.00475583)
(-0.499845 1.62766 -0.0040263)
(-0.51785 1.68664 -0.00427588)
(-0.144854 1.34836 -0.00353364)
(-0.0502551 1.24275 -0.00329147)
(1.28638 0.851596 -0.00278671)
(-0.552118 1.79866 -0.00455947)
(0.0881607 0.321504 -0.000882106)
(0.0812492 0.296277 -0.000829498)
(0.14392 0.135584 -0.000429657)
(0.398432 -0.165431 0.00028794)
(0.384626 -0.159697 0.00027647)
(0.157871 0.148738 -0.00046527)
(0.0546765 0.191223 -0.000514182)
(0.0509714 0.183784 -0.000502039)
(0.0464073 0.167302 -0.000467343)
(0.0411498 0.143825 -0.000406095)
(0.189303 0.178369 -0.000550633)
(0.415332 -0.172438 0.000291111)
(0.433182 -0.179813 0.000295974)
(0.173783 0.163743 -0.000506358)
(0.660499 3.24004 -0.00381774)
(0.225172 0.977242 -0.00111916)
(0.216749 0.940531 -0.00124498)
(0.603063 2.95776 -0.0039569)
(0.235797 1.02276 -0.00208155)
(0.637237 3.12456 -0.00603758)
(0.207387 0.899797 -0.00172388)
(0.679464 3.33145 -0.00672588)
(0.230287 0.998588 -0.00255334)
(0.658718 3.22936 -0.00786088)
(0.247437 1.07312 -0.00260923)
(0.623964 3.0586 -0.00767004)
(-0.0662984 -0.53627 0.000552255)
(-0.0337591 -0.247473 0.000273098)
(-0.0469283 -0.342066 0.000912931)
(-0.0597804 -0.434682 0.00120904)
(-0.097342 -0.783074 0.00216233)
(-0.0530897 -0.522179 0.000912635)
(-0.0053822 -0.162677 0.000303072)
(-0.00535489 -0.161952 0.000275992)
(-5.70425e-05 -0.0228785 4.3879e-05)
(2.37133e-05 -0.0170057 2.70071e-05)