/*--------------------------------*- C++ -*----------------------------------*\
| =========                 |                                                 |
| \\      /  F ield         | OpenFOAM: The Open Source CFD Toolbox           |
|  \\    /   O peration     | Version:  2306                                  |
|   \\  /    A nd           | Website:  www.openfoam.com                      |
|    \\/     M anipulation  |                                                 |
\*---------------------------------------------------------------------------*/
FoamFile
{
    version     2.0;
    format      ascii;
    arch        "LSB;label=32;scalar=64";
    class       volScalarField;
    location    "1.5";
    object      p;
}
// * * * * * * * * * * * * * * * * * * * * * * * * * * * * * * * * * * * * * //

dimensions      [0 2 -2 0 0 0 0];

internalField   nonuniform List<scalar> 
111542
(
59.856
61.1966
64.379
69.5734
76.8646
86.4727
98.5633
113.167
129.784
146.971
162.145
171.271
170.305
158.074
137.664
114.769
93.291
74.6765
59.0813
46.4174
36.3588
28.615
22.8006
18.3962
15.0568
12.5015
10.4485
8.86062
7.68194
6.77957
6.06614
5.48206
5.03698
4.65858
4.29396
3.90043
3.42401
2.85896
2.10275
1.06097
58.8143
60.1163
63.2683
68.4035
75.6885
85.4478
98.0591
113.774
132.417
152.895
172.471
185.568
184.586
168.272
142.488
115.834
92.368
72.7063
56.6547
43.9212
34.0981
26.6886
21.1583
17.1008
14.0571
11.6948
9.84368
8.41841
7.32756
6.47494
5.79363
5.24113
4.7907
4.40064
4.02999
3.64032
3.18776
2.62687
1.88595
0.905507
56.7506
57.987
60.9987
65.9534
73.1276
83.0391
96.4054
114.036
136.584
163.868
192.503
213.803
213.564
187.931
151.753
118.7
91.4931
69.7346
52.7528
39.8126
30.212
23.4765
18.7016
15.1981
12.3259
9.98755
8.22563
6.94553
6.00215
5.2903
4.74688
4.32828
3.99787
3.72158
3.46351
3.18724
2.84848
2.39126
1.74015
0.810363
53.7147
54.8246
57.5428
62.0822
68.8311
78.5246
92.3192
111.919
139.732
178.989
214.128
256.668
261.927
220.692
168.374
127.961
95.072
69.9229
51.3275
37.6875
23.6376
17.3159
15.0094
13.6404
11.6023
9.48291
7.79741
6.53458
5.55531
4.77904
4.16704
3.68634
3.30485
2.99068
2.71395
2.44288
2.13321
1.72419
1.12151
0.19729
49.8149
50.7152
52.9333
56.6974
62.4488
71.0398
83.9247
103.538
133.917
178.894
256.082
342.222
365.387
257.046
172.351
123.614
84.3835
57.7218
39.9435
28.4262
21.0726
5.74507
5.32022
6.07585
5.49907
4.69832
4.1167
3.67728
3.30287
2.9859
2.72947
2.52483
2.36029
2.22062
2.09303
1.96063
1.79323
1.53849
1.08111
0.13126
45.2449
45.8443
47.3324
49.8955
53.9104
60.1175
69.8562
85.5963
112.129
167.102
261.15
456.294
620.599
248.115
175.342
114.847
67.6693
41.3821
25.6933
16.2125
14.9149
13.4133
12.8644
8.12296
4.83804
3.26335
2.41935
1.82224
1.37849
1.07485
0.881129
0.761628
0.690275
0.649962
0.627863
0.612281
0.590645
0.553172
0.515312
0.635264
40.2943
40.5204
41.0883
42.0838
43.6867
46.2383
50.3276
56.9508
67.8288
107.487
183.718
415.089
1954.3
-417.484
214.337
80.372
32.1262
16.7202
8.12934
-1.7699
-6.61145
14.9222
14.4663
8.86297
5.39413
4.01088
3.37336
2.91062
2.54907
2.29404
2.12193
2.0011
1.91173
1.8408
1.78033
1.72376
1.65742
1.57289
1.46367
1.35397
35.3262
35.1547
34.7222
33.9914
32.8908
31.2456
28.6507
24.1586
15.3823
17.6977
0.841524
-161.217
-1008.59
-1055.69
-311.357
-100.21
-45.3611
-25.2734
-16.3961
-10.3303
-3.63138
-7.82232
-6.11946
-4.59976
-3.76944
-2.8668
-1.95757
-1.21021
-0.623724
-0.144989
0.256135
0.591121
0.867779
1.09197
1.26741
1.39279
1.45287
1.41608
1.21527
0.723315
30.7561
30.2099
28.8345
26.4904
22.9033
17.5109
9.28559
-3.67448
-25.0059
-48.3964
-122.367
-267.757
-479.535
-508.301
-320.691
-175.013
-100.313
-61.0725
-39.1319
-25.228
-15.2614
-8.58185
-4.68633
-1.87744
-0.153046
0.937555
1.72163
2.28725
2.67378
2.93075
3.09901
3.20301
3.25596
3.26414
3.22719
3.13801
2.97277
2.68295
2.17397
1.25644
26.9711
26.1071
23.9651
20.3319
14.8202
6.69737
-5.25035
-23.0033
-49.8559
-91.438
-149.644
-222.897
-288.742
-296.966
-239.066
-165.752
-110.405
-74.8788
-51.8026
-35.7867
-24.4325
-16.9038
-11.8897
-8.29545
-5.72156
-3.87133
-2.47105
-1.37451
-0.51432
0.159832
0.691591
1.11235
1.44078
1.68631
1.84862
1.92183
1.88355
1.69189
1.28682
0.619445
24.2738
23.1919
20.5198
16.0218
9.26805
-0.475659
-14.322
-33.7717
-60.6979
-96.9665
-142.525
-192.134
-231.021
-238.299
-207.87
-159.02
-114.617
-82.1715
-59.3296
-42.6446
-30.2255
-21.1298
-14.4631
-9.56111
-5.96494
-3.33675
-1.40115
0.0364239
1.10109
1.88117
2.44526
2.84444
3.11307
3.27056
3.31659
3.26251
3.08537
2.73881
2.14945
1.18329
22.8723
21.6887
18.7371
13.8317
6.46872
-3.99278
-18.5792
-38.4429
-64.7471
-97.8451
-136.221
-174.441
-202.51
-208.825
-189.229
-153.311
-115.872
-85.4126
-62.7068
-45.7099
-32.8429
-23.2168
-16.1455
-10.9894
-7.26987
-4.56843
-2.58763
-1.12011
-0.0252073
0.793026
1.40348
1.85541
2.18294
2.40992
2.48276
2.47743
2.35284
2.05889
1.54462
0.753645
59.246
60.5347
63.6404
68.6652
75.7115
84.9926
96.7073
110.844
126.91
143.554
158.262
167.085
166.033
154.104
134.282
112.047
91.214
73.1023
57.8928
45.4999
35.6848
28.0997
22.3421
18.0011
14.6991
12.1346
10.1172
8.56188
7.38762
6.49475
5.80401
5.26119
4.83176
4.46884
4.12834
3.76934
3.34724
2.81369
2.08809
1.06829
58.217
59.4829
62.5393
67.5072
74.5519
83.991
96.197
111.41
129.469
149.337
168.359
181.146
179.92
163.937
138.87
113.031
90.2704
71.1366
55.4754
43.0403
33.4509
26.1716
20.6938
16.667
13.6465
11.2988
9.46919
8.06752
6.99834
6.17088
5.51954
4.99992
4.57775
4.2156
3.87714
3.52496
3.11717
2.60026
1.90233
0.943263
56.1846
57.3893
60.305
65.0959
72.032
81.6174
94.5523
111.63
133.501
160.012
187.854
208.495
208.241
183.063
147.824
115.821
89.4383
68.2384
51.6471
39.018
29.7032
23.0646
18.2349
14.6657
11.7768
9.45692
7.73142
6.49925
5.60931
4.95143
4.45991
4.08918
3.80183
3.56402
3.344
3.10793
2.81562
2.40992
1.808
0.892897
53.1972
54.279
56.9076
61.2915
67.8104
77.1807
90.5325
109.54
136.584
174.888
210.483
252.327
257.222
216.12
164.852
125.534
93.3986
68.688
50.3802
36.9669
23
16.8946
14.4404
12.8994
10.7971
8.70543
7.09654
5.92755
5.04134
4.34998
3.81266
3.39569
3.06888
2.80277
2.57178
2.3488
2.09673
1.75626
1.22655
0.33874
49.3631
50.2398
52.38
56.0067
61.5521
69.8487
82.3218
101.371
131
176.031
252.333
337.405
359.332
250.791
167.896
121.411
83.1064
56.7484
39.1054
27.6778
20.5067
5.10946
4.41662
5.03632
4.42804
3.68655
3.22775
2.93048
2.68798
2.48139
2.3113
2.17
2.05071
1.94421
1.84411
1.74335
1.62313
1.43749
1.06932
0.191592
44.8758
45.4561
46.8842
49.34
53.1938
59.1713
68.5911
83.901
109.88
164.83
258.704
452.56
614.023
239.11
166.326
113.57
66.8446
40.4733
24.7933
15.411
17.0451
12.0967
11.2053
6.69297
3.70834
2.40002
1.77921
1.35461
1.03087
0.803101
0.653364
0.556885
0.498519
0.467917
0.459982
0.471641
0.500737
0.547733
0.626634
0.822296
40.0197
40.2319
40.763
41.6915
43.1973
45.6176
49.5396
55.9721
66.6882
106.356
182.8
415.593
1936.8
182.626
83.4135
32.9116
17.1391
8.22873
-2.51977
-10.3854
16.529
15.5423
9.40087
5.72373
4.16177
3.32716
2.68643
2.18109
1.81357
1.55497
1.36986
1.23704
1.14155
1.07661
1.03819
1.02202
1.02636
1.05357
1.1266
35.1242
34.9703
34.5268
33.7738
32.6487
30.9853
28.3974
23.9846
15.462
17.899
1.75147
-156.579
-989.279
-1035.89
-305.457
-97.5432
-43.8918
-24.6367
-16.2573
-10.4491
-4.14986
-8.03992
-6.42963
-4.96456
-4.02373
-3.02976
-2.09841
-1.36289
-0.797793
-0.343593
0.0325783
0.345423
0.605803
0.821129
0.998767
1.14177
1.24181
1.27114
1.1589
0.73189
30.6576
30.1256
28.7598
26.4374
22.8936
17.5841
9.51532
-3.15589
-23.9671
-47.2418
-119.729
-262.815
-471.461
-497.728
-314.586
-171.362
-98.1692
-59.9593
-38.6335
-25.0829
-15.2873
-8.96063
-5.0395
-2.16026
-0.371605
0.73511
1.49053
2.00766
2.3425
2.55109
2.67734
2.74766
2.77637
2.77086
2.73283
2.6581
2.52675
2.29418
1.87052
1.07837
26.9487
26.0982
23.9955
20.4203
15.004
7.04028
-4.64901
-21.9855
-48.174
-88.7294
-145.517
-217.012
-281.42
-289.134
-232.527
-161.249
-107.673
-73.3652
-51.0412
-35.5061
-24.4804
-17.1702
-12.1963
-8.58384
-5.99854
-4.14415
-2.74273
-1.64919
-0.796893
-0.134376
0.384346
0.79266
1.11119
1.35118
1.51571
1.60091
1.58783
1.43831
1.09761
0.525975
24.3113
23.2518
20.6271
16.2081
9.58892
0.0502948
-13.485
-32.4747
-58.7354
-94.0895
-138.479
-186.776
-224.68
-231.869
-202.252
-154.902
-111.933
-80.5611
-58.4306
-42.2184
-30.127
-21.2504
-14.6913
-9.8421
-6.27681
-3.66819
-1.7456
-0.319583
0.732129
1.49799
2.04815
2.43499
2.69394
2.84631
2.89991
2.85758
2.70201
2.39375
1.86927
1.02204
22.9455
21.772
18.8903
14.0581
6.86407
-3.37652
-17.6308
-37.0305
-62.6625
-94.9451
-132.355
-169.598
-196.973
-203.271
-184.365
-149.486
-113.204
-83.7354
-61.7223
-45.1982
-32.6524
-23.2463
-16.3142
-11.2525
-7.56899
-4.88461
-2.91452
-1.45381
-0.364239
0.448599
1.05328
1.49917
1.81945
2.03223
2.13635
2.14305
2.03349
1.77092
1.31483
0.640736
58.1013
59.3147
62.2317
66.9343
73.5213
82.1933
93.1382
106.333
121.314
136.833
150.503
158.618
157.489
146.145
127.43
106.497
86.8715
69.7382
55.2897
43.483
34.1208
26.8493
21.2889
17.0966
13.9201
11.4576
9.52846
8.03324
6.88941
6.01378
5.33539
4.80181
4.37296
4.01258
3.68478
3.35212
2.97267
2.49419
1.84721
0.940053
57.1003
58.2947
61.1606
65.8071
72.3897
81.2056
92.6019
106.801
123.655
142.206
159.99
171.728
170.493
155.289
131.634
107.352
85.9208
67.8065
52.9239
41.0984
31.9857
24.9871
19.6942
15.8408
12.9752
10.7345
8.96407
7.58527
6.51615
5.67927
5.01655
4.48652
4.05517
3.69077
3.36244
3.03679
2.67485
2.22516
1.62078
0.789555
55.1268
56.2635
58.9925
63.466
69.9378
78.8792
90.9464
106.888
127.336
152.181
178.325
197.845
197.218
173.142
139.937
109.946
85.1014
64.9974
49.217
37.2514
28.5876
22.1765
17.403
13.9762
11.2796
9.09691
7.42917
6.20135
5.2883
4.59533
4.0659
3.66018
3.3442
3.08925
2.86821
2.65329
2.40936
2.08421
1.59478
0.811949
52.2286
53.2486
55.7019
59.7828
65.8495
74.574
87.0211
104.782
130.155
166.308
201.462
241.575
245.84
205.844
157.032
119.978
89.3733
65.6772
48.0873
35.2451
21.8263
16.3659
13.9954
12.375
10.1842
7.99881
6.2863
5.01517
4.03973
3.2779
2.68956
2.24121
1.90181
1.64304
1.44257
1.27931
1.1252
0.931745
0.610258
0.0157109
48.5158
49.3403
51.3271
54.6844
59.8213
67.5226
79.1406
96.9732
124.914
168.92
242.642
325.067
345.339
238.822
160.528
116.912
79.8452
54.0939
36.8719
25.7298
18.4334
4.30303
4.78991
5.79269
4.98197
3.88017
3.08816
2.51155
2.04066
1.65366
1.34613
1.10624
0.924412
0.789035
0.696677
0.646181
0.63404
0.634453
0.552914
0.0536275
44.1732
44.7217
46.0312
48.2745
51.8062
57.3144
66.0612
80.4126
105.068
158.922
251.254
441.677
597.606
225.212
161.223
111.888
65.7197
39.0569
23.2039
13.4976
9.20698
6.36595
6.46231
2.73381
-0.117296
-1.49559
-2.14919
-2.55067
-2.81847
-2.97062
-3.03162
-3.03365
-2.98353
-2.8931
-2.76175
-2.58049
-2.32793
-1.96485
-1.40376
-0.381868
39.4821
39.6806
40.1385
40.9349
42.2455
44.395
47.9519
53.9295
64.1688
103.282
179.417
411.997
1909.61
173.999
87.5532
35.1858
17.2243
7.10659
-3.39289
-10.8079
12.7725
11.0876
4.89129
1.48793
0.219945
-0.347283
-0.737867
-1.01778
-1.192
-1.28748
-1.33302
-1.34394
-1.32042
-1.25881
-1.14726
-0.964257
-0.679553
-0.240663
0.416929
34.7769
34.6118
34.145
33.3506
32.175
30.4674
27.8784
23.5957
15.5385
18.2722
3.72598
-148.326
-967.948
-1012.63
-293.51
-90.7525
-40.8807
-23.8319
-16.4713
-11.0315
-4.0897
-9.19207
-8.59562
-7.59281
-6.52991
-5.29784
-4.15718
-3.23769
-2.51148
-1.92384
-1.43896
-1.03584
-0.69881
-0.412638
-0.156744
0.0830931
0.317216
0.535696
0.678863
0.531018
30.4691
29.9459
28.6099
26.3318
22.8716
17.7238
9.9633
-2.12895
-21.8673
-44.3056
-113.41
-250.999
-452.607
-477.702
-300.014
-162.391
-93.3113
-57.6036
-37.6656
-24.9057
-15.6247
-10.2664
-6.63094
-3.8418
-2.05086
-0.908676
-0.0950702
0.496557
0.911322
1.19687
1.39572
1.53442
1.62937
1.6908
1.72912
1.74731
1.73665
1.66449
1.44805
0.899912
26.9026
26.0833
24.0404
20.577
15.3493
7.69741
-3.47919
-19.9767
-44.8036
-83.1896
-136.971
-204.809
-266.102
-273.474
-219.752
-152.545
-102.428
-70.4372
-49.527
-34.9073
-24.5638
-17.8596
-12.9686
-9.38365
-6.88161
-5.0874
-3.69115
-2.5664
-1.66757
-0.953981
-0.383319
0.075683
0.444404
0.733575
0.953304
1.10404
1.17401
1.13255
0.926984
0.497268
24.3698
23.3453
20.8134
16.5534
10.1916
1.05326
-11.8671
-29.9335
-54.8468
-88.3265
-130.336
-176.06
-212.078
-219.069
-191.25
-146.773
-106.553
-77.2185
-56.4409
-41.1463
-29.7163
-21.3097
-14.9842
-10.2832
-6.84923
-4.33908
-2.47144
-1.06715
-0.0171905
0.759118
1.32807
1.73976
2.0291
2.21741
2.3176
2.3315
2.24708
2.03265
1.63052
0.932895
23.0617
21.9289
19.1509
14.4983
7.59688
-2.20325
-15.8001
-34.2544
-58.5755
-89.1661
-124.587
-159.862
-185.87
-192.053
-174.477
-141.836
-107.87
-80.2672
-59.5655
-43.9487
-32.0485
-23.0968
-16.4521
-11.5591
-7.98312
-5.37777
-3.46089
-2.02747
-0.945381
-0.126796
0.492307
0.958865
1.30482
1.54839
1.69795
1.75307
1.70214
1.51806
1.16463
0.609891
56.524
57.6303
60.274
64.5241
70.4649
78.2695
88.0962
99.9105
113.283
127.086
139.16
146.168
144.894
134.413
117.349
98.3404
80.4798
64.7928
51.4838
40.5595
31.8596
25.0307
19.7072
15.6236
12.5235
10.1453
8.30383
6.88702
5.80866
4.98971
4.36162
3.87328
3.48634
3.16841
2.88901
2.61644
2.31418
1.93612
1.42435
0.708846
55.5616
56.6505
59.2444
63.4367
69.3634
77.2836
87.4979
100.192
115.224
131.731
147.539
157.629
156.316
142.347
120.868
98.9101
79.4446
62.8673
49.1755
38.2732
29.8486
23.1892
17.9997
14.1946
11.4093
9.26999
7.59697
6.30408
5.31236
4.54771
3.95208
3.48368
3.10985
2.8023
2.5353
2.28197
2.01042
1.67756
1.22472
0.588721
53.6698
54.7025
57.1645
61.1863
66.9921
74.9972
85.7784
99.9968
118.218
140.361
163.663
181.088
179.966
157.854
127.904
100.944
78.4292
60.0521
45.5694
34.6312
26.8774
20.4769
15.2799
11.7328
9.23684
7.32311
5.87038
4.80173
4.01331
3.4207
2.97341
2.63678
2.38253
2.18611
2.02936
1.8935
1.75504
1.57208
1.26654
0.689107
50.8895
51.8173
54.0184
57.6647
63.0753
70.8456
81.9215
97.7271
120.357
152.775
186.378
223.214
226.537
189.009
144.493
110.878
82.6743
60.7312
44.4273
32.5786
19.8689
14.2134
10.927
8.97994
7.08685
5.35981
4.04166
3.079
2.3462
1.77252
1.32679
0.989195
0.736595
0.548549
0.419361
0.343418
0.314281
0.306136
0.247336
-0.0447673
47.3413
48.0876
49.8521
52.8195
57.3568
64.1632
74.4512
90.2983
115.306
156.783
225.13
302.324
320.416
219.229
148.859
108.913
73.7164
49.3485
33.163
22.716
15.4745
-2.6441
-0.822857
1.48502
1.47468
0.887501
0.445211
0.110798
-0.190558
-0.458216
-0.682667
-0.854969
-0.982447
-1.06609
-1.0925
-1.04445
-0.896333
-0.632734
-0.303155
-0.245849
43.2018
43.6916
44.8268
46.7615
49.8152
54.6052
62.268
74.9723
97.1252
148.109
236.527
419.921
567.452
204.524
157.392
108.41
61.2807
34.7701
19.5405
10.2887
3.19775
-7.34716
-2.90017
-2.41281
-3.22299
-3.66134
-3.82463
-3.97368
-4.13871
-4.28087
-4.38287
-4.45659
-4.48349
-4.46224
-4.37388
-4.18428
-3.83358
-3.21547
-2.14747
-0.371028
38.7405
38.9072
39.2553
39.8569
40.8726
42.5919
45.5295
50.6414
59.7425
97.0379
171.391
403.368
1865.99
211.252
89.5855
32.3911
12.7882
3.27341
-6.41081
-13.0914
15.3415
11.9904
4.7934
0.726524
-1.22576
-2.39206
-3.23998
-3.85699
-4.278
-4.55017
-4.70758
-4.78316
-4.78885
-4.70587
-4.51042
-4.1488
-3.52802
-2.49666
-0.877143
34.2841
34.1049
33.6008
32.7423
31.4829
29.6841
27.0389
22.8403
15.2907
18.1437
5.80986
-134.284
-915.863
-970.849
-271.443
-81.4521
-38.516
-24.5065
-18.1939
-13.0382
-5.14716
-8.10912
-7.83365
-7.22006
-6.39114
-5.4157
-4.51242
-3.78354
-3.21358
-2.76123
-2.39597
-2.08652
-1.83772
-1.62189
-1.40406
-1.15594
-0.84331
-0.436644
0.040516
0.312076
30.1998
29.6904
28.3883
26.1692
22.8204
17.8899
10.551
-0.725918
-18.896
-39.794
-103.393
-231.081
-419.708
-442.627
-274.879
-148.328
-86.4267
-54.6532
-36.7352
-25.1377
-16.7713
-12.198
-7.60912
-4.23985
-2.45968
-1.53234
-0.933849
-0.525115
-0.265423
-0.107148
-0.00650677
0.0632748
0.11321
0.157808
0.211858
0.285125
0.381606
0.49022
0.550133
0.399586
26.825
26.042
24.0871
20.782
15.8184
8.60627
-1.83933
-17.1196
-39.9216
-74.9583
-123.987
-185.879
-241.838
-248.667
-200.079
-139.581
-94.8312
-66.239
-47.3616
-34.0709
-24.7175
-18.7604
-13.46
-9.53806
-7.04027
-5.36425
-4.07467
-3.03608
-2.21236
-1.56396
-1.04752
-0.630769
-0.293969
-0.022405
0.199078
0.375754
0.504629
0.567693
0.522123
0.310661
24.4318
23.4569
21.0521
17.0165
11.0159
2.44473
-9.59763
-26.3251
-49.2524
-79.9157
-118.275
-159.974
-192.924
-199.535
-174.611
-134.704
-98.6905
-72.3351
-53.4953
-39.5176
-29.0422
-21.2904
-15.193
-10.5495
-7.18812
-4.77391
-2.99767
-1.67359
-0.694512
0.0200933
0.537791
0.910095
1.17265
1.34884
1.45533
1.49686
1.46638
1.34179
1.07957
0.610617
23.1989
22.1226
19.4911
15.0964
8.60339
-0.573393
-13.2391
-30.3334
-52.7479
-80.8241
-113.24
-145.494
-169.352
-175.283
-159.73
-130.56
-100.097
-75.206
-56.3817
-42.0647
-31.0928
-22.7845
-16.5103
-11.7717
-8.26675
-5.72295
-3.86603
-2.48505
-1.44755
-0.667513
-0.081443
0.358386
0.684903
0.918989
1.07252
1.14757
1.13618
1.01997
0.774436
0.394651
54.6411
55.6152
57.9258
61.6261
66.7784
73.5162
81.9532
92.0289
103.34
114.889
124.818
130.346
128.79
119.402
104.491
87.9606
72.3535
58.5155
46.6619
36.8603
29.0239
22.8673
18.0374
14.2673
11.3642
9.13113
7.40561
6.07752
5.06417
4.29568
3.7046
3.24241
2.87681
2.57904
2.3288
2.09876
1.85672
1.56417
1.17463
0.611006
53.7232
54.682
56.9437
60.5822
65.7049
72.5168
81.2487
92.0217
104.667
118.398
131.309
139.31
137.721
125.411
106.87
87.972
71.0739
56.5125
44.3762
34.6707
27.1995
21.3209
16.6836
13.1339
10.4522
8.37615
6.74937
5.48733
4.51746
3.77995
3.20969
2.76273
2.40961
2.12853
1.89775
1.69562
1.49827
1.27256
0.96639
0.504283
51.9224
52.8304
54.9651
58.433
63.4164
70.2498
79.3922
91.3571
106.562
124.886
144.044
157.915
156.139
136.961
111.558
88.6988
69.3697
53.3717
40.6463
31.1005
24.7553
19.3737
14.4526
10.9014
8.47108
6.67055
5.29834
4.26629
3.48898
2.88572
2.42133
2.06894
1.80585
1.60869
1.46358
1.36089
1.29089
1.22707
1.10297
0.731087
49.2907
50.0971
51.9862
55.0962
59.6886
66.2473
75.5355
88.6937
107.409
134.108
164.562
195.554
197.415
164.312
126.365
97.5256
72.8891
53.6634
39.3191
29.095
19.6484
16.959
11.6661
7.76126
5.13874
3.25396
1.92515
0.999058
0.33099
-0.16488
-0.527111
-0.779386
-0.943558
-1.04435
-1.08064
-1.04177
-0.912459
-0.681806
-0.370612
-0.144487
45.9349
46.5768
48.0648
50.548
54.3292
59.98
68.4837
81.5301
102.092
138.838
197.026
263.722
277.978
187.977
130.556
95.0749
63.4276
41.8476
27.652
18.9599
15.5495
7.18539
5.30582
3.85574
2.2029
0.774747
-0.247547
-1.01105
-1.62897
-2.1339
-2.5398
-2.84463
-3.06277
-3.20771
-3.26089
-3.17976
-2.91043
-2.36528
-1.47055
-0.481325
42.036
42.4446
43.3614
44.9094
47.3529
51.1934
57.3504
67.6022
85.6221
130.677
210.022
376.543
510.078
172.422
154.513
96.1933
50.8126
26.3485
12.6796
4.42142
-5.02869
-33.2888
-29.3857
-26.7237
-25.425
-24.1522
-22.9875
-22.0474
-21.2762
-20.6
-19.9798
-19.4134
-18.8595
-18.2773
-17.6358
-16.8777
-15.8857
-14.4151
-11.9158
-7.01973
37.8476
37.9657
38.1741
38.5283
39.1595
40.2918
42.3302
46.0438
52.957
85.8746
153.769
373.936
1785.59
276.362
73.2495
18.0644
-0.410406
-8.52372
-14.2535
-18.7411
-0.984006
-4.27941
-9.50564
-12.0724
-13.0727
-13.5548
-13.8397
-13.9731
-13.9756
-13.8817
-13.7341
-13.5036
-13.1997
-12.8058
-12.2656
-11.4706
-10.1959
-8.01421
-4.26797
33.6713
33.4807
32.9265
31.9814
30.6013
28.6551
25.8643
21.6152
14.4139
16.6703
6.06145
-119.273
-837.985
-866.856
-232.888
-72.8326
-39.8488
-29.0187
-23.3853
-18.2183
-12.8727
-21.9077
-18.1323
-14.3735
-12.0989
-10.4659
-9.19089
-8.22953
-7.51295
-6.96692
-6.5397
-6.18647
-5.89148
-5.61963
-5.32936
-4.96902
-4.4672
-3.71369
-2.58899
-1.16239
29.8579
29.3667
28.0973
25.9433
22.7199
18.0368
11.1866
0.881854
-15.3442
-34.0262
-89.602
-201.31
-366.684
-383.938
-236.961
-129.929
-78.4899
-51.722
-36.2012
-26.2283
-20.5125
-19.4833
-12.9616
-7.79683
-5.23512
-3.91881
-3.05009
-2.44153
-2.03465
-1.76449
-1.57594
-1.43672
-1.32801
-1.22195
-1.09816
-0.933544
-0.700854
-0.374918
0.0270343
0.309123
26.7082
25.9664
24.1168
20.9981
16.3505
9.66834
0.116846
-13.6441
-33.8484
-64.4163
-106.757
-159.816
-207.417
-213.497
-173.094
-122.707
-85.2783
-60.9819
-44.5971
-32.9757
-25.0338
-20.4749
-15.2079
-10.9703
-8.24106
-6.39738
-4.9727
-3.82983
-2.92975
-2.2266
-1.67243
-1.22979
-0.876991
-0.58777
-0.343783
-0.130206
0.0622886
0.231751
0.346214
0.309968
24.4792
23.5638
21.3101
17.5424
11.9772
4.09675
-6.86299
-21.9172
-42.3126
-69.287
-102.709
-138.749
-167.226
-173.221
-152.508
-119.132
-88.7239
-66.0995
-49.6213
-37.2506
-27.9805
-21.1847
-15.7017
-11.2931
-7.98268
-5.56008
-3.75586
-2.39576
-1.37762
-0.623817
-0.0681658
0.340466
0.638283
0.852375
1.00135
1.09507
1.13347
1.10209
0.961654
0.617767
23.3333
22.324
19.8675
15.7803
9.77781
1.35995
-10.1558
-25.5542
-45.5562
-70.3898
-98.847
-127.017
-147.883
-153.374
-140.531
-116.05
-90.174
-68.7074
-52.1987
-39.4757
-29.6546
-22.195
-16.5069
-12.0818
-8.70917
-6.20944
-4.35513
-2.9558
-1.88958
-1.07696
-0.458302
0.0124777
0.368512
0.63272
0.819188
0.934056
0.973881
0.92475
0.762516
0.454125
52.5971
53.4252
55.3699
58.4666
62.7521
68.3124
75.2062
83.3349
92.3098
101.263
108.672
112.4
110.423
102.273
89.8623
76.1922
63.1943
51.5139
41.3455
32.7885
25.8178
20.2692
15.9215
12.5451
9.9302
7.89207
6.29844
5.06065
4.10808
3.39013
2.83618
2.40069
2.06014
1.77216
1.54464
1.34947
1.15526
0.92325
0.648405
0.298481
51.7272
52.5415
54.4374
57.467
61.7035
67.2872
74.3633
82.9644
92.8633
103.316
112.684
118.086
115.958
105.623
90.6313
75.3782
61.5555
49.4081
39.0664
30.5789
23.7924
18.4825
14.3614
11.2128
8.79361
6.89167
5.38673
4.20305
3.26859
2.59746
2.07787
1.66525
1.32965
1.06843
0.858777
0.686824
0.534904
0.394082
0.225295
0.0442046
50.0251
50.7925
52.5657
55.4225
59.4951
65.0211
72.3124
81.6835
93.3156
106.906
120.596
129.706
127.018
111.468
91.591
73.8293
58.5894
45.5979
34.9321
26.5367
19.9983
15.2822
11.4294
8.53096
6.34851
4.66639
3.38861
2.43564
1.73845
1.15746
0.714022
0.389523
0.162654
0.0170523
-0.0789858
-0.12161
-0.111787
-0.0514611
0.0344176
0.0906236
47.5506
48.2218
49.7647
52.2809
55.9616
61.1553
68.3913
78.4197
92.2815
111.285
136.34
158.192
158.088
131.667
102.068
79.5016
60.0122
44.4846
32.5721
23.7279
12.2496
9.49737
6.32854
3.74346
1.58525
-0.105128
-1.33042
-2.20153
-2.84605
-3.33473
-3.68468
-3.91362
-4.0456
-4.10521
-4.089
-3.97301
-3.73213
-3.31257
-2.6315
-1.51276
44.3939
44.9234
46.1048
48.0499
50.9821
55.3139
61.7255
71.354
86.1504
115.424
156.943
204.041
209.79
139.078
97.8616
71.3996
47.0753
30.154
18.7807
11.8424
9.93452
-2.15939
-3.29111
-4.65098
-6.11105
-7.37921
-8.14048
-8.62589
-8.97543
-9.23041
-9.40415
-9.50893
-9.52238
-9.44035
-9.29082
-8.9944
-8.47358
-7.57672
-6.04485
-3.45894
40.7621
41.0753
41.7485
42.8646
44.6169
47.3551
51.7028
58.8366
71.1307
105.931
166.686
292.561
389.133
103.843
112.243
57.3833
21.0845
2.45285
-7.62675
-12.8513
-11.8013
-26.3396
-27.6792
-31.2363
-32.2484
-31.8079
-31.1801
-30.5412
-29.8659
-29.1567
-28.4272
-27.6689
-26.9161
-26.1522
-25.2924
-24.2744
-22.9545
-20.9871
-17.5608
-10.6713
36.8766
36.9241
36.9752
37.0514
37.2406
37.6797
38.6046
40.4527
44.0884
68.8142
120.699
301.776
1592.77
259.614
-15.1755
-58.8191
-68.0963
-69.5495
-67.9564
-62.8262
-35.5736
-34.791
-36.9325
-37.1479
-36.2752
-35.2625
-34.292
-33.3284
-32.3624
-31.4022
-30.4737
-29.5409
-28.5593
-27.5386
-26.3856
-24.9464
-22.8526
-19.2417
-11.8508
32.9831
32.7813
32.1673
31.1204
29.5951
27.459
24.4436
20.0046
12.945
13.5321
3.73524
-94.557
-666.331
-658.355
-186.767
-75.4928
-51.8593
-42.4077
-36.5301
-31.0805
-28.3998
-31.0404
-27.0961
-23.257
-20.8509
-19.0294
-17.5764
-16.4394
-15.5314
-14.7837
-14.1498
-13.5989
-13.1178
-12.6277
-12.1161
-11.5279
-10.7609
-9.63048
-7.7978
-4.59637
29.4647
28.9994
27.7529
25.6638
22.5713
18.1469
11.8137
2.57692
-11.3015
-27.328
-71.9335
-157.69
-281.62
-294.743
-186.951
-108.24
-69.4398
-48.1041
-35.0624
-26.5902
-24.0019
-19.2564
-15.2481
-12.0025
-10.0148
-8.6813
-7.663
-6.87435
-6.2692
-5.79733
-5.41707
-5.099
-4.82789
-4.56946
-4.30017
-3.99131
-3.59934
-3.06287
-2.29904
-1.20703
26.5543
25.849
24.1181
21.1996
16.8933
10.7885
2.2215
-9.83526
-27.0308
-52.24
-86.2017
-127.37
-163.241
-168.798
-139.77
-102.177
-73.3091
-53.7498
-39.9696
-29.8677
-22.7446
-18.7669
-15.0459
-11.9119
-9.57299
-7.80898
-6.40969
-5.28416
-4.38539
-3.66783
-3.09053
-2.62027
-2.23574
-1.90939
-1.62143
-1.35416
-1.09337
-0.82672
-0.549489
-0.253933
24.5019
23.6525
21.5594
18.0815
12.991
5.86953
-3.88989
-17.0666
-34.5657
-57.2063
-84.6645
-113.68
-136.433
-141.516
-126.097
-100.855
-76.977
-58.5158
-44.6006
-33.8849
-25.6911
-19.6625
-15.0058
-11.3013
-8.45216
-6.30488
-4.67552
-3.42973
-2.47811
-1.75358
-1.20131
-0.778944
-0.455177
-0.20564
-0.0132912
0.132026
0.231697
0.278265
0.255229
0.150916
23.4476
22.5079
20.2434
16.4899
11.0228
3.43999
-6.80065
-20.3003
-37.5658
-58.6593
-82.4675
-105.749
-122.925
-127.758
-118.122
-99.1068
-78.4952
-60.8644
-46.8948
-35.873
-27.214
-20.5695
-15.5285
-11.6522
-8.68497
-6.43925
-4.73791
-3.43685
-2.43615
-1.66597
-1.07329
-0.616581
-0.265266
0.00187336
0.198791
0.332421
0.400357
0.392345
0.298929
0.14372
50.5443
51.2227
52.7996
55.29
58.7049
63.0836
68.4299
74.6092
81.2489
87.6129
92.5139
94.4236
92.0232
85.1425
75.2366
64.4142
54.029
44.541
36.1123
28.8666
22.8414
17.9729
14.1481
11.2232
8.97209
7.20097
5.80223
4.71129
3.87097
3.22936
2.73371
2.34564
2.03956
1.79225
1.58964
1.41013
1.22796
1.01507
0.741709
0.36699
49.7219
50.3871
51.9156
54.3339
57.6804
62.0321
67.4487
73.8775
81.0365
88.2365
94.1559
96.7357
93.9287
85.5639
74.1856
62.6259
51.9796
42.3842
33.9735
26.8617
21.0095
16.3059
12.6757
10.0158
8.00822
6.4276
5.17703
4.1953
3.42564
2.82895
2.35797
1.98179
1.68011
1.43846
1.24204
1.07788
0.92836
0.771104
0.571296
0.287211
48.1174
48.7387
50.1502
52.3932
55.552
59.7679
65.2061
71.9852
80.0554
88.9485
97.2014
101.511
97.4919
85.2097
70.7771
58.1502
47.1474
37.302
28.8165
21.8036
16.0951
11.6859
8.93081
6.9908
5.35042
4.01387
3.01471
2.28933
1.75695
1.35208
1.05112
0.834408
0.684214
0.584478
0.522899
0.499103
0.510457
0.543598
0.557375
0.426932
45.7917
46.3257
47.5253
49.447
52.2138
56.0402
61.2221
68.1203
77.1306
88.555
100.572
108.841
102.25
82.117
63.9083
50.9889
39.9886
30.4088
22.4366
15.7415
9.01745
2.75908
2.80733
3.1754
2.50733
1.559
0.759398
0.127543
-0.388442
-0.809635
-1.13693
-1.37571
-1.53566
-1.62884
-1.65285
-1.59085
-1.42404
-1.12604
-0.687389
-0.181399
42.8529
43.2538
44.125
45.5342
47.6138
50.6214
54.9281
61.0861
69.8728
90.0401
111.533
132.356
125.684
83.1963
58.7985
45.5681
31.02
19.8214
11.9213
6.28235
0.717992
-13.4688
-10.8182
-7.80278
-6.47054
-5.82931
-5.38223
-5.06985
-4.88194
-4.78119
-4.72921
-4.6965
-4.66225
-4.61044
-4.5059
-4.29836
-3.92152
-3.27023
-2.23234
-0.839694
39.4717
39.6881
40.1141
40.7985
41.8575
43.4872
46.0043
49.9358
56.167
78.0328
105.668
150.081
167.679
28.619
20.5667
4.32279
-4.69904
-9.18796
-12.6484
-15.1967
-21.4081
-14.1043
-15.2182
-16.8418
-17.2362
-17.0785
-16.8212
-16.55
-16.2626
-15.961
-15.647
-15.303
-14.9484
-14.5733
-14.1133
-13.5067
-12.6427
-11.2875
-8.99728
-5.02007
35.8671
35.8605
35.7518
35.5497
35.2962
35.0379
34.8273
34.7271
34.7904
48.7454
60.2504
131.078
175.371
-681.437
-127.621
-90.9284
-67.6073
-62.4885
-58.4255
-55.1145
-67.2097
-40.6744
-38.3016
-36.0782
-34.1044
-32.192
-30.5063
-29.0565
-27.7761
-26.6241
-25.5776
-24.6199
-23.7284
-22.8433
-21.9316
-20.9275
-19.7129
-18.0018
-15.1628
-9.56069
32.2968
32.0576
31.3824
30.234
28.5642
26.2352
22.9743
18.2693
11.1241
9.23849
-13.1412
-82.1416
-306.49
-257.53
-105.464
-57.5246
-37.4118
-28.5218
-23.3165
-18.8097
-10.8345
4.73124
1.61746
-2.13953
-3.7348
-4.43669
-4.86145
-5.14221
-5.31208
-5.40363
-5.44454
-5.45754
-5.43508
-5.35007
-5.18696
-4.92142
-4.48652
-3.75943
-2.58613
-1.02653
29.0493
28.5865
27.3813
25.3595
22.3992
18.2316
12.3906
4.08206
-8.17176
-27.3562
-51.8635
-106.746
-176.989
-187.792
-129.133
-81.8745
-55.5466
-39.5052
-29.0684
-21.3877
-11.2085
-2.11476
-2.95414
-4.28629
-4.22393
-3.69775
-3.19811
-2.78709
-2.44802
-2.17206
-1.95118
-1.7723
-1.62501
-1.49357
-1.34643
-1.16196
-0.916249
-0.57914
-0.166484
0.117607
26.3787
25.7246
24.092
21.3738
17.4119
11.8881
4.30631
-6.06517
-20.2678
-39.6396
-64.839
-93.4451
-117.342
-122.179
-105.009
-80.4756
-59.9857
-45.0831
-33.9579
-25.115
-17.6536
-12.4884
-9.53615
-7.39974
-5.50626
-3.94555
-2.75959
-1.87361
-1.20684
-0.704202
-0.32617
-0.0412637
0.172115
0.336614
0.475187
0.599636
0.714214
0.808724
0.829327
0.602838
24.4963
23.7088
21.7799
18.5942
13.9828
7.62724
-0.921247
-12.2033
-26.7641
-44.9122
-66.0706
-87.8231
-104.453
-108.89
-99.225
-81.8757
-64.4911
-50.2071
-38.9005
-29.795
-22.4102
-16.6384
-12.1881
-8.88181
-6.38597
-4.47617
-3.02117
-1.91586
-1.0754
-0.436445
0.047614
0.412549
0.685325
0.886841
1.03181
1.12759
1.17026
1.13957
0.987014
0.609014
23.5324
22.6701
20.5909
17.1731
12.2473
5.50731
-3.44672
-15.0257
-29.5121
-46.7763
-65.7824
-84.0197
-97.368
-101.543
-95.1606
-81.5752
-66.1573
-52.3357
-40.9257
-31.6133
-24.049
-18.0369
-13.3846
-9.8562
-7.16118
-5.07329
-3.45421
-2.20552
-1.24663
-0.512577
0.0467853
0.469809
0.785716
1.01532
1.17163
1.2605
1.27594
1.19883
0.991366
0.590331
48.6277
49.1637
50.3973
52.3285
54.942
58.2382
62.1769
66.6031
71.1764
75.3017
78.1112
78.5987
76.0098
70.3852
62.7354
54.4195
46.3234
38.7841
31.9536
25.9728
20.9265
16.814
13.5666
11.0494
9.06936
7.47726
6.19645
5.17862
4.37759
3.74843
3.2514
2.85483
2.53359
2.26596
2.03251
1.81325
1.58264
1.30929
0.955555
0.47521
47.8498
48.373
49.5581
51.4154
53.9444
57.1726
61.0916
65.5901
70.3681
74.8314
78.0048
78.6138
75.6167
69.1575
60.8123
52.2625
44.2031
36.7493
30.0441
24.2536
19.4379
15.5782
12.6168
10.3649
8.58267
7.13437
5.96329
5.02387
4.26911
3.65998
3.16544
2.76148
2.42834
2.14851
1.90605
1.68544
1.4651
1.21568
0.894761
0.448195
46.3362
46.8181
47.8888
49.572
51.8977
54.9303
58.7213
63.2479
68.3112
73.3643
77.2456
78.0678
73.9535
65.4324
55.7753
47.165
39.4587
32.2533
25.7831
20.3037
15.8613
12.507
10.2625
8.50142
6.91958
5.57335
4.51686
3.71076
3.09166
2.61151
2.23996
1.9537
1.73444
1.56684
1.438
1.33796
1.25184
1.15161
0.979109
0.609206
44.1516
44.5551
45.4302
46.8071
48.7501
51.3591
54.7542
59.0274
64.1566