/*--------------------------------*- C++ -*----------------------------------*\
| =========                 |                                                 |
| \\      /  F ield         | OpenFOAM: The Open Source CFD Toolbox           |
|  \\    /   O peration     | Version:  2306                                  |
|   \\  /    A nd           | Website:  www.openfoam.com                      |
|    \\/     M anipulation  |                                                 |
\*---------------------------------------------------------------------------*/
FoamFile
{
    version     2.0;
    format      ascii;
    arch        "LSB;label=32;scalar=64";
    class       surfaceScalarField;
    location    "1.5";
    object      phi;
}
// * * * * * * * * * * * * * * * * * * * * * * * * * * * * * * * * * * * * * //

dimensions      [0 3 -1 0 0 0 0];

oriented        oriented;

internalField   nonuniform List<scalar> 
338621
(
24.995
0.00215909
0.00149928
24.9874
0.00465475
0.00306776
24.9752
0.0074778
0.0048397
24.9578
0.0105065
0.00695949
24.9344
0.0138616
0.00973733
24.9014
0.0199572
0.0133358
24.8543
0.0295768
0.0178557
24.7908
0.0403263
0.0235894
24.7283
0.0322808
0.0307421
24.6844
0.00522555
0.0391858
24.6553
-0.0190947
0.0487428
24.5808
0.0162702
0.0588921
24.609
-0.0968683
0.0692468
24.7395
-0.208718
0.0788024
24.7819
-0.128755
0.0868891
24.8154
-0.126164
0.0931465
24.8457
-0.127688
0.0977276
24.8706
-0.125918
0.101268
24.8916
-0.124839
0.10399
24.9194
-0.133944
0.106265
24.95
-0.138536
0.108055
24.973
-0.132705
0.109732
24.9903
-0.128695
0.111388
25.0042
-0.126753
0.112886
25.0156
-0.125787
0.114341
25.025
-0.125094
0.11573
25.033
-0.124941
0.116952
25.0397
-0.12472
0.117975
25.0454
-0.124547
0.118879
25.0504
-0.124649
0.119624
25.055
-0.124752
0.120189
25.0593
-0.124857
0.120547
25.0633
-0.124886
0.120812
25.0672
-0.124841
0.120969
25.071
-0.124748
0.120985
25.075
-0.124927
0.120898
25.0792
-0.124893
0.120674
25.0837
-0.124859
0.120401
25.0885
-0.124895
0.120046
-0.125287
0.119366
24.995
0.00431215
0.00146633
24.9873
0.00946658
0.00296498
24.9746
0.0155088
0.00470544
24.9572
0.0212964
0.00679361
24.9337
0.0279745
0.00953317
24.9039
0.0370206
0.0130075
24.8678
0.0484286
0.0175575
24.8215
0.0636215
0.0233595
24.7563
0.0672467
0.0306723
24.6808
0.0415844
0.0395191
24.6371
-0.0247778
0.0498382
24.6232
-0.0301349
0.0608389
24.6614
-0.207425
0.0727657
24.7455
-0.376034
0.0836005
24.8266
-0.301828
0.0924293
24.8962
-0.294494
0.0990265
24.9501
-0.285103
0.103763
24.994
-0.276929
0.107323
25.0404
-0.28131
0.110098
25.0755
-0.281237
0.112265
25.0964
-0.273509
0.114078
25.111
-0.262967
0.115693
25.1206
-0.255659
0.117375
25.1278
-0.252906
0.118949
25.1329
-0.251313
0.120437
25.1366
-0.250577
0.121778
25.1387
-0.25004
0.123004
25.1403
-0.250369
0.124049
25.1417
-0.250884
0.12494
25.1426
-0.251192
0.125673
25.1433
-0.25172
0.126246
25.1437
-0.251929
0.126667
25.1444
-0.252552
0.126973
25.1452
-0.252806
0.127162
25.1462
-0.252979
0.127234
25.1474
-0.253368
0.127242
25.1489
-0.253523
0.127097
25.1509
-0.253734
0.126913
25.1536
-0.254271
0.126594
-0.25428
0.125987
24.9953
0.00615641
0.00138801
24.9876
0.0144051
0.00280359
24.9756
0.0231742
0.00441789
24.9575
0.0330337
0.00647124
24.933
0.0435929
0.00910013
24.9015
0.0562514
0.0125014
24.8611
0.0720126
0.0170611
24.8113
0.0907405
0.0229535
24.7416
0.106607
0.0306387
24.6428
0.100262
0.0404019
24.5652
0.00544957
0.0523005
-0.00595507
0.00594133
-0.00457278
24.661
-0.0385975
0.0660706
-0.0583717
-0.0373205
-0.0574308
24.5529
-0.0110436
0.079212
-0.0954148
0.0218499
-0.0937744
24.7258
-0.182209
0.0918344
-0.124081
-0.211944
-0.12231
24.8202
-0.129108
0.101197
-0.121803
-0.126882
-0.119379
24.8826
-0.118292
0.107718
-0.116331
-0.115732
-0.114096
24.9384
-0.114347
0.112208
-0.114466
-0.112386
-0.111806
25.0059
-0.116641
0.115535
-0.115453
-0.114533
-0.113325
25.0503
-0.11275
0.118122
-0.111206
-0.110701
-0.109239
25.077
-0.108621
0.120048
-0.107453
-0.1066
-0.105425
25.0957
-0.413831
0.121587
25.1097
-0.400067
0.123069
25.1181
-0.388938
0.124888
25.1241
-0.385748
0.126817
25.1286
-0.384419
0.128662
25.1314
-0.383693
0.130288
25.1328
-0.383142
0.13167
25.1337
-0.384086
0.132807
25.1336
-0.384475
0.133705
25.1337
-0.385643
0.13439
25.1333
-0.386228
0.134887
25.1331
-0.386937
0.135231
25.1326
-0.387515
0.135402
25.1325
-0.388192
0.135572
25.1322
-0.38826
0.135584
25.132
-0.388785
0.135575
25.1324
-0.389341
0.135432
25.1332
-0.389787
0.13525
25.1343
-0.390288
0.134934
-0.390736
0.134348
24.9956
0.00831004
0.00126856
24.9888
0.0186602
0.00256301
24.977
0.03104
0.00401986
24.9601
0.0441415
0.0059496
24.9353
0.0600881
0.00838914
24.9006
0.0795107
0.0116368
24.8546
0.102185
0.0160374
24.7958
0.127854
0.0218962
24.7284
0.144324
0.0298122
6.14058
0.0369777
0.0404243
0.054327
0.0384482
0.0547599
6.1627
6.13984
6.16085
6.12287
0.0172746
0.00589459
-6.10964
6.09733
-0.0340021
0.00771904
-6.10111
6.12251
-0.0420677
0.00962013
-6.11469
6.1416
-0.220758
0.0116341
-6.16037
6.17478
-0.156658
0.0131479
-6.18823
6.19917
-0.143254
0.0140232
-6.21077
6.22541
-0.143582
0.0145996
-6.23772
6.2453
-0.139242
0.0150166
-6.25145
6.257
-0.133623
0.0153177
-6.2617
6.26599
-0.128484
0.0155717
25.1087
-0.140778
0.129106
-0.141707
-0.138999
-0.140439
-6.26982
-6.27468
-6.27034
-6.27494
25.1142
-0.536327
0.130694
25.1164
-0.523954
0.132787
25.1183
-0.522742
0.135169
25.1177
-0.521435
0.137591
25.1152
-0.520983
0.139783
25.1122
-0.521788
0.141628
25.108
-0.522955
0.143087
25.103
-0.523647
0.144161
25.0974
-0.524978
0.144889
25.0917
-0.525863
0.14532
25.0858
-0.52648
0.145519
25.0795
-0.526767
0.145502
25.0734
-0.527518
0.145475
25.0674
-0.527532
0.145273
25.0612
-0.527706
0.145053
25.0553
-0.528068
0.144699
25.0495
-0.528238
0.144232
25.0449
-0.529357
0.143627
-0.529454
0.142682
24.9973
0.00882018
0.00110736
24.9913
0.0224376
0.0022376
24.9815
0.0374161
0.00350527
24.9659
0.0545603
0.00520588
24.9429
0.0758653
0.00736084
24.9092
0.103074
0.0102482
24.8588
0.138522
0.0141663
24.7839
0.183295
0.019571
6.17062
0.233713
0.0269393
6.1633
6.17047
6.16332
6.1544
0.049199
0.00401431
6.12864
0.00559534
-6.1568
0.0202957
0.0119017
0.0117602
0.0203597
-0.0417458
-6.07558
6.04107
0.00756716
-0.00197004
0.00423284
0.00393355
-0.00186812
0.0225901
-6.04038
6.05849
0.00990166
0.0291708
-0.0401315
-0.0402892
-0.0191072
0.0423025
-6.11077
6.13606
0.0127601
-0.0521434
-0.0668377
-0.104707
-0.0526219
0.23821
-6.16873
6.18104
0.014501
-0.0510182
-0.0549217
-0.0541923
-0.0514499
0.184747
-6.19309
6.20688
0.0151527
-0.0512841
-0.0505349
-0.0504605
-0.0513163
0.174651
-6.22085
6.23307
0.0153894
-0.0492926
-0.0491752
-0.0492084
-0.0492811
0.169334
-6.24314
6.2508
0.0155432
-0.0464008
-0.0462392
-0.0462578
-0.0464026
0.162068
-6.25758
6.26251
0.0157142
-0.0436331
-0.0437774
-0.0437626
-0.0436678
0.154179
-6.26688
6.26923
0.0159384
-0.0412376
-0.0416281
-0.041568
-0.0413094
0.147446
-6.27245
6.27456
-0.159603
0.0167072
25.0585
-0.629706
0.127266
-6.27514
-6.26906
-6.27603
-6.27221
25.0315
-0.626586
0.12969
25.0016
-0.624754
0.131841
24.971
-0.624666
0.133861
24.9412
-0.626761
0.135532
24.9123
-0.629447
0.136593
24.8842
-0.631824
0.136908
24.8579
-0.633777
0.136493
24.8325
-0.63502
0.135447
24.8085
-0.635818
0.133933
24.7861
-0.636174
0.132122
24.7652
-0.636016
0.130142
24.7452
-0.63572
0.128225
24.7267
-0.635375
0.126335
24.7093
-0.634879
0.124545
24.693
-0.634618
0.1228
24.6784
-0.634624
0.121024
24.6654
-0.635474
0.119154
-0.637972
0.116981
24.9999
0.00738811
0.00090754
24.9965
0.0240131
0.00184158
24.9889
0.0421782
0.002889
24.977
0.0622425
0.00422363
24.9592
0.087704
0.0059799
24.9319
0.122162
0.00828247
24.8885
0.170712
0.0113522
24.8155
0.240691
0.0156186
6.17015
0.348325
0.0213326
6.16974
6.17013
6.16958
-0.0652789
6.14436
0.0878937
0.00317476
-0.0197048
-1.52737
1.52219
0.024296
0.00059168
-0.0195575
-1.50387
1.49172
0.0309837
0.000726336
-1.46811
0.0521051
1.47796
-0.0630955
0.00112813
-1.52923
0.0847139
1.53781
-0.0947497
0.00144278
-1.53612
0.0621842
-0.0664509
0.00205459
1.53833
-1.54789
0.0600608
-0.0647773
0.00212338
1.55048
0.0570652
-1.55633
1.55783
-0.0605606
0.00199537
0.0525376
-1.56092
1.56152
-0.0551647
0.002032
0.0492778
-1.56225
1.56234
-0.051601
0.00223434
0.0464247
-1.56163
1.56119
-0.0484619
0.00247961
-1.55431
0.174556
6.15871
-0.170214
0.0200518
-1.53752
-1.55455
-1.53672
23.8596
-0.71287
0.0601188
-6.10136
-5.79931
-6.12131
-5.81458
23.8715
-0.701676
0.0631866
23.8807
-0.69881
0.064894
23.8889
-0.69838
0.0655101
23.8961
-0.699371
0.0653743
23.9027
-0.700608
0.0645074
23.9094
-0.701452
0.0629552
23.9164
-0.701598
0.0608403
23.9241
-0.701039
0.0583231
23.9325
-0.699834
0.0555699
23.9417
-0.698088
0.0527277
23.9519
-0.696078
0.0498892
23.9628
-0.693811
0.0471979
23.9742
-0.691388
0.0446338
23.9862
-0.689111
0.0422005
23.9986
-0.686832
0.0398475
24.0111
-0.684665
0.0374708
24.0233
-0.6826
0.0349393
-0.680061
0.0322252
25.003
0.00351425
0.000686928
25.0035
0.0221332
0.00138446
25.0006
0.0429479
0.00217077
24.9948
0.0649192
0.00309872
24.9859
0.0922973
0.00429169
24.9723
0.129995
0.00583919
24.9524
0.182807
0.0077574
24.9211
0.261839
0.0102099
6.21287
0.388948
0.0131044
6.22101
6.21262
6.22086
-0.106345
6.19736
0.119993
0.00186721
-0.0394907
-1.54189
1.53571
0.0453561
0.000311543
-0.0824926
-1.50618
1.48764
0.100813
0.000221461
0.00437311
-0.0746513
0.0748349
-0.00458349
2.67358e-05
-0.0213887
0.000450251
0.0209002
2.64034e-06
3.55612e-05
-0.19022
0.00643153
-0.0174002
-0.00347496
0.204663
-1.17133
0.0559807
-0.074772
-0.0005882
1.19071
0.0501666
-1.23429
1.24489
-0.0586022
-0.00216946
0.0499612
-1.27922
1.2909
-0.0584259
-0.00321007
0.0492976
-1.32205
1.33172
-0.0552343
-0.00372955
0.049528
-1.35661
1.36505
-0.0542353
-0.00372981
-1.40552
0.202942
5.84522
-0.218102
-0.0139575
-1.49858
-1.41162
-1.50038
24.0699
-0.660402
-0.10641
-5.88732
-6.17089
-5.79076
-6.16697
24.1151
-0.638435
-0.108409
24.1561
-0.630748
-0.109118
24.1939
-0.626753
-0.109457
24.2275
-0.623849
-0.109114
24.2569
-0.621879
-0.108063
24.2825
-0.620495
-0.106583
24.305
-0.619219
-0.104833
24.3249
-0.617915
-0.103048
24.3429
-0.616456
-0.101365
24.3595
-0.614802
-0.0998981
24.3751
-0.613056
-0.0986246
24.3901
-0.611174
-0.0976352
24.4047
-0.609177
-0.0968246
24.4189
-0.607037
-0.0962446
24.4329
-0.604994
-0.0959153
24.4469
-0.602751
-0.0958503
24.4605
-0.600082
-0.0961465
-0.596205
-0.0968711
25.0047
-0.00135021
0.000461743
25.0099
0.0160078
0.000916692
25.0148
0.03668
0.00139868
25.0187
0.0590657
0.00194085
25.0205
0.0878959
0.00252233
25.0256
0.121709
0.0032025
25.0377
0.166782
0.00383631
25.0638
0.231441
0.0042416
6.27431
0.333006
0.00407316
6.28211
6.27471
6.28448
-0.112029
6.28209
0.103825
0.000426792
-0.0447839
-1.57796
1.57966
0.0430596
1.62182e-05
-0.0845628
-1.59835
1.61347
-0.000240053
0.0696871
-0.0259286
-1.71435
1.75369
-0.00162511
0.0564017
-0.021067
-0.026016
-0.0210957
0.103125
-1.71407
1.68371
-0.00145654
-0.0713056
0.103646
-1.60901
-0.0018391
1.59845
-0.0912448
0.0784648
-1.58409
-0.00179297
1.58121
-0.0737924
0.0567414
-1.57669
1.5758
-0.0539802
-0.00186955
0.057067
-1.57419
1.57243
-0.0533747
-0.00193651
0.051206
-1.57216
1.57154
-0.0486157
-0.00197603
0.0475009
-1.57068
1.5702
-0.0450312
-0.0019922
-1.56795
0.17758
6.26575
-0.156942
-0.0159355
-1.56744
-1.56759
-1.56747
25.0731
-0.53544
-0.119256
-6.26945
-6.26918
-6.27067
-6.26951
25.074
-0.519343
-0.119948
25.0711
-0.507396
-0.120423
25.0672
-0.501719
-0.121206
25.0638
-0.498208
-0.122194
25.0609
-0.495862
-0.123137
25.0585
-0.494081
-0.124018
25.0563
-0.492312
-0.12472
25.0548
-0.491121
-0.125271
25.0536
-0.489591
-0.125678
25.0526
-0.487767
-0.126022
25.052
-0.486287
-0.126179
25.0517
-0.484466
-0.126358
25.0512
-0.482249
-0.126457
25.0513
-0.480489
-0.126619
25.0516
-0.478424
-0.126882
25.0523
-0.476156
-0.127288
25.0535
-0.473415
-0.127919
-0.470394
-0.128698
25.0057
-0.00627362
0.000219737
25.014
0.00720432
0.0004591
25.0269
0.0230965
0.000665215
25.0381
0.0469718
0.000819041
25.0534
0.0716646
0.000872082
25.0769
0.0973983
0.000722815
25.1149
0.128427
0.000208589
25.1784
0.168901
-0.00111706
6.32061
0.231542
-0.00373875
6.31873
6.32497
6.31916
-0.0889747
6.33679
0.0735638
-0.000774297
-0.0333478
6.41365
0.0883825
-0.00170935
-0.0345655
-0.0335636
-0.0342722
-6.36458
-0.0335672
6.51836
0.0763646
-0.00360849
-0.02629
-0.0335804
-0.0263538
-6.47131
-0.00714634
-6.54948
6.51586
-0.00604038
-0.00661805
0.0153688
-0.00751305
0.0456019
0.0461134
-6.53715
6.51457
-0.124695
-0.00977929
0.0398613
0.036864
0.0342488
0.0554809
-6.44945
6.4115
-0.178128
-0.0119922
0.0560162
0.0577803
0.0587953
0.0563767
-6.37149
6.33944
-0.175091
-0.0133387
0.0550236
0.0553853
0.0536799
0.0462718
-6.3216
6.31071
-0.155964
-0.014243
0.0452806
0.0451285
0.044416
0.0440318
-6.30238
6.2968
-0.15435
-0.0147597
0.0437664
0.0435783
0.0433215
0.0409141
-6.29259
6.28738
-0.14123
-0.0149803
0.040399
0.0403808
0.0397379
0.0379544
-6.28321
6.2778
-0.129147
-0.0150529
0.0374832
0.0373956
0.0367869
0.140333
-6.2762
6.27422
-0.123146
-0.0151993
25.0748
-0.400776
-0.124103
-6.27154
-6.27146
-6.27166
-6.27069
25.066
-0.386091
-0.124377
25.061
-0.377584
-0.124799
25.0571
-0.372496
-0.125336
25.0542
-0.369484
-0.125831
25.0519
-0.367394
-0.126188
25.0503
-0.366054
-0.126395
25.0494
-0.364967
-0.126466
25.0487
-0.363988
-0.12642
25.0484
-0.362976
-0.126277
25.0483
-0.361635
-0.126095
25.0485
-0.360668
-0.125835
25.0486
-0.359047
-0.125514
25.0495
-0.357885
-0.125239
25.0503
-0.356292
-0.125021
25.0512
-0.354421
-0.124883
25.0529
-0.352927
-0.124899
25.0558
-0.351156
-0.125149
-0.349549
-0.125689
25.0062
-0.011147
6.25666e-05
25.0159
-0.00263361
0.000100804
25.0247
0.0142425
5.31414e-05
25.0411
0.0305413
-9.22014e-05
25.0677
0.0454583
-0.000491786
25.1012
0.0650145
-0.00127712
25.1489
0.0832122
-0.00267682
25.2157
0.107029
-0.00515271
25.3251
0.131206
-0.00936418
25.4311
0.145435
-0.0162073
-0.0612645
-0.0570623
-0.0591313
-0.0580355
25.5808
0.133373
-0.0265968
-0.0609682
-0.0644811
-0.062759
-0.0685171
25.7165
0.055362
-0.0413572
-0.0422529
-0.0282369
-0.0467091
-0.0326606
25.5946
-0.156876
-0.0591275
0.0215718
0.124823
0.0194372
0.171883
25.5013
-0.239098
-0.0777978
0.0841807
0.117883
0.0994117
0.108571
25.4323
-0.249269
-0.0930476
0.0834945
0.14868
0.0319883
0.14697
25.3469
-0.351854
-0.103959
0.13511
0.137763
0.133361
0.134779
25.2636
-0.319998
-0.110634
0.128179
0.131549
0.125654
0.12842
25.1983
-0.328688
-0.114607
0.130642
0.127433
0.127141
0.123367
25.1556
-0.306709
-0.116924
0.120217
0.116989
0.116578
0.112536
25.1319
-0.287288
-0.118309
0.109459
0.109249
0.104552
0.10613
25.1123
-0.272853
-0.11918
0.104833
0.104212
0.101951
0.100679
25.0945
-0.26334
-0.119677
25.0834
-0.254807
-0.120141
25.0758
-0.249256
-0.12075
25.0701
-0.245281
-0.121484
25.0655
-0.242746
-0.122144
25.0623
-0.241444
-0.122771
25.0594
-0.2398
-0.12333
25.0573
-0.239113
-0.123801
25.0556
-0.238012
-0.124178
25.0544
-0.237407
-0.124448
25.0539
-0.236514
-0.124626
25.0533
-0.235277
-0.124729
25.0534
-0.234444
-0.124691
25.0532
-0.233042
-0.124686
25.0534
-0.231834
-0.124653
25.0544
-0.230787
-0.124666
25.056
-0.22967
-0.124786
25.0576
-0.227697
-0.125078
-0.226075
-0.125588
25.0065
-0.0157167
-7.89077e-05
25.0094
-0.00546337
-0.000164822
25.017
0.00701606
-0.000375914
25.0364
0.0117459
-0.000718589
25.0618
0.0213144
-0.0014085
25.0912
0.037998
-0.00261541
25.1393
0.0393418
-0.00455867
25.201
0.0526422
-0.00762956
25.2809
0.0633725
-0.0124592
25.3778
0.0677453
-0.0196054
25.4859
0.0544181
-0.0296328
25.5671
0.0167396
-0.0429984
25.5451
-0.0767103
-0.0585127
25.5306
-0.15082
-0.074172
25.4077
-0.0392541
-0.0875486
25.3254
-0.172158
-0.0977586
25.2757
-0.166168
-0.104409
25.2146
-0.158991
-0.108795
25.17
-0.150602
-0.111511
25.138
-0.142045
-0.113299
25.1143
-0.134595
-0.114557
25.0955
-0.129217
-0.115409
25.0819
-0.124995
-0.116189
25.0718
-0.122211
-0.116919
25.0644
-0.120212
-0.117665
25.059
-0.119065
-0.118259
25.0544
-0.118072
-0.118806
25.0514
-0.117559
-0.119265
25.0493
-0.117405
-0.119547
25.0478
-0.116791
-0.119719
25.0468
-0.116676
-0.119758
25.046
-0.116036
-0.119685
25.046
-0.115836
-0.119475
25.0459
-0.115144
-0.119202
25.0466
-0.114802
-0.118908
25.0473
-0.113967
-0.118597
25.0485
-0.113606
-0.118324
25.05
-0.112988
-0.118154
25.0526
-0.112178
-0.11817
-0.112341
-0.118468
24.9868
-0.000137354
24.9815
-0.000248168
24.989
-0.000549786
25.0015
-0.00092494
25.0244
-0.00177308
25.0652
-0.00310682
25.1095
-0.00522594
25.1702
-0.0085297
25.2466
-0.0135541
25.3345
-0.020651
25.4185
-0.0302064
25.477
-0.0423886
25.4559
-0.056196
25.3746
-0.0700933
25.4171
-0.0823111
25.3367
-0.092215
25.2691
-0.0989121
25.2131
-0.103237
25.1684
-0.106045
25.1342
-0.107952
25.1089
-0.109356
25.0901
-0.110412
25.0764
-0.111299
25.0663
-0.112064
25.0589
-0.112862
25.0534
-0.113558
25.0495
-0.11419
25.0468
-0.114787
25.0445
-0.115154
25.0432
-0.115435
25.0421
-0.115606
25.0417
-0.115604
25.0413
-0.115467
25.0414
-0.115266
25.0417
-0.115073
25.0426
-0.114843
25.0436
-0.114632
25.0451
-0.114512
25.0475
-0.114569
-0.114908
24.9958
0.00127207
0.00282696
24.9892
0.00404065
0.00575733
24.9786
0.00667755
0.00913006
24.9627
0.00995876
0.0132591
24.9415
0.0130469
0.0184957
24.9122
0.0181345
0.0252854
24.8702
0.0268798
0.0340297
24.8124
0.0374112
0.0451457
24.7561
0.0295998
0.0589236
24.7187
0.0025086
0.0756385
24.6925
-0.0177902
0.0945443
24.629
0.00914644
0.11504
24.6572
-0.0929038
0.135692
24.7757
-0.193101
0.155101
24.8102
-0.11734
0.171443
24.8364
-0.115732
0.184041
24.8614
-0.119459
0.193343
24.8817
-0.118518
0.200317
24.8987
-0.118181
0.205643
24.9257
-0.130245
0.20986
24.9522
-0.131559
0.21322
24.9725
-0.126622
0.216149
24.9884
-0.123207
0.218828
25.0013
-0.121427
0.221344
25.012
-0.120055
0.22372
25.0213
-0.119508
0.225939
25.0293
-0.118956
0.227968
25.0361
-0.118622
0.229769
25.0423
-0.118682
0.23135
25.0481
-0.118825
0.232709
25.0532
-0.118737
0.233814
25.0577
-0.11863
0.234673
25.0622
-0.118989
0.235269
25.0667
-0.119277
0.235698
25.0709
-0.118997
0.235871
25.0751
-0.119222
0.235907
25.0792
-0.119152
0.235642
25.0835
-0.11915
0.235261
25.0884
-0.119419
0.234571
-0.119581
0.233064
24.9959
0.00260709
0.00275478
24.9893
0.00811777
0.00561086
24.9781
0.0139695
0.00891044
24.9623
0.0200049
0.0129757
24.9406
0.0266566
0.0181582
24.9131
0.0344722
0.0249256
24.8799
0.04479
0.0337168
24.837
0.0596714
0.0450618
24.7736
0.0654229
0.0594387
24.6969
0.0428285
0.0771983
24.6525
-0.0200989
0.0979355
24.5894
0.0135158
0.12092
24.6243
-0.197972
0.144175
24.7574
-0.407228
0.165864
24.8402
-0.289982
0.183522
24.9104
-0.282662
0.196802
24.9625
-0.273608
0.206537
25.0039
-0.26582
0.213675
25.0497
-0.272657
0.219107
25.0819
-0.273348
0.22325
25.1006
-0.262569
0.226514
25.1135
-0.253191
0.229317
25.122
-0.246179
0.231921
25.1281
-0.242977
0.234372
25.1329
-0.241119
0.236698
25.136
-0.239695
0.238888
25.138
-0.238859
0.240939
25.1399
-0.239294
0.242823
25.1412
-0.23957
0.244522
25.142
-0.240014
0.246009
25.143
-0.240759
0.247265
25.1442
-0.241467
0.248281
25.1449
-0.241834
0.249105
25.1457
-0.242561
0.249685
25.1471
-0.243169
0.250054
25.1481
-0.243185
0.250206
25.1495
-0.243667
0.250129
25.1517
-0.244171
0.249818
25.1538
-0.244221
0.249239
-0.244765
0.247783
24.9959
0.00401911
0.00260803
24.9895
0.0121711
0.00531752
24.9784
0.0212715
0.00846534
24.962
0.0308595
0.0123751
24.9392
0.0416001
0.0174135
24.9092
0.0534733
0.0240775
24.8711
0.0678264
0.0329113
24.8242
0.0856785
0.0446055
24.7581
0.103155
0.0599508
24.6627
0.100046
0.0796369
24.5831
0.00627243
0.103841
-0.00341112
0.00713157
-0.00115192
24.7148
-0.0365213
0.13118
-0.0571158
-0.0343716
-0.0544776
24.5722
0.0229539
0.158924
-0.0937724
0.0261883
-0.0899589
24.7357
-0.21317
0.184654
-0.122796
-0.208991
-0.118074
24.8288
-0.12737
0.203673
-0.120015
-0.122648
-0.114783
24.8911
-0.116722
0.2171
-0.11514
-0.112021
-0.109823
24.9462
-0.113701
0.226681
-0.112922
-0.108736
-0.10762
25.0121
-0.115638
0.233559
-0.114367
-0.110614
-0.109106
25.0547
-0.111971
0.238644
-0.110625
-0.107126
-0.106278
25.081
-0.108458
0.242345
-0.106869
-0.104375
-0.102409
25.0998
-0.404766
0.244893
25.1128
-0.390336
0.247218
25.121
-0.379181
0.249596
25.1267
-0.374503
0.252653
25.1306
-0.371686
0.255348
25.1329
-0.36975
0.258068
25.1343
-0.368665
0.260071
25.1344
-0.36878
0.262112
25.1341
-0.369498
0.263924
25.1343
-0.371328
0.265506
25.1337
-0.37204
0.26685
25.1332
-0.373762
0.267967
25.1334
-0.375266
0.268623
25.1331
-0.376201
0.269569
25.1327
-0.377268
0.270044
25.1328
-0.378052
0.270301
25.1331
-0.378822
0.270303
25.1337
-0.379471
0.270008
25.1351
-0.380093
0.269396
-0.380532
0.267863
24.9968
0.00514627
0.00238592
24.9907
0.0161774
0.00487059
24.9798
0.0286429
0.00776998
24.9635
0.0419317
0.0114018
24.9405
0.0572278
0.0161397
24.9074
0.0762223
0.0224942
24.8624
0.09825
0.0311413
24.804
0.123629
0.0429259
24.7358
0.14279
0.0590441
6.14237
0.038326
0.0809743
0.0539763
0.039022
0.05475
6.16249
6.14273
6.16226
-0.0116846
6.12501
0.0176233
0.0177442
-0.0154279
-6.11266
6.10046
-0.0322847
0.0233949
-0.0193397
-6.10406
6.0966
0.0203935
0.0293263
-0.0233239
-6.11177
6.14392
-0.257295
0.035264
-0.0263095
-6.16203
6.17624
-0.154925
0.0396496
-0.0281521
-6.18964
6.20082
-0.142138
0.0424067
-0.0293214
-6.21214
6.22677
-0.143328
0.0443043
-0.0301261
-6.23991
6.24738
-0.13868
0.0456702
-0.0307115
-6.25352
6.25899
-0.133398
0.0466299
-0.0311586
-6.26304
6.26732
-0.128989
0.04737
25.1137
-0.141778
0.267429
-0.142345
-0.140754
-0.138323
-6.27153
-6.27563
-6.27126
-6.27544
25.1214
-0.536223
0.26883
25.1246
-0.52044
0.270777
25.1262
-0.515733
0.274757
25.1253
-0.51172
0.278548
25.1219
-0.508954
0.28238
25.1178
-0.5083
0.285309
25.1127
-0.508621
0.288043
25.1068
-0.509773
0.290324
25.1002
-0.51195
0.292175
25.0937
-0.513874
0.293631
25.087
-0.516286
0.294742
25.0801
-0.518159
0.295276
25.0735
-0.520162
0.296062
25.0669
-0.52171
0.29624
25.0608
-0.523133
0.296246
25.0546
-0.523687
0.295814
25.0489
-0.524497
0.294969
25.0446
-0.525754
0.293582
-0.525862
0.290974
24.9985
0.00473126
0.00208494
24.9934
0.0193418
0.00426056
24.9839
0.0350145
0.00680205
24.9692
0.0520382
0.00999998
24.947
0.0728801
0.0142025
24.9146
0.0995418
0.019638
24.8655
0.134172
0.0277566
24.7921
0.17823
0.0387022
6.17312
0.228821
0.0542514
6.16591
6.17383
6.16627
-0.00797599
6.15785
0.0494479
0.0121593
-0.0112044
6.13179
0.0171519
-6.16068
0.0202837
0.0114843
0.0202969
0.0113861
-0.0405072
-0.0152633
-6.07852
6.04479
0.0235133
-0.00189912
0.00355244
-0.00214246
0.00375586
0.0220988
-0.0200828
-6.04308
6.0567
0.030859
0.0520473
-0.0405825
0.0515331
-0.0402011
-0.0474463
-0.0253256
-6.09699
6.13786
0.0381933
-0.0511809
-0.129276
-0.0518661
-0.128716
0.307048
-0.0284158
-6.16824
6.17933
0.0420816
-0.0499734
-0.05361
-0.0506256
-0.0529252
0.18228
-0.0295606
-6.19288
6.20746
0.0438569
-0.0509795
-0.0505085
-0.0512839
-0.0501418
0.17402
-0.0300054
-6.22182
6.23426
0.0449947
-0.0492191
-0.0492253
-0.0491576
-0.049244
0.169348
-0.0302969
-6.24438
6.25198
0.0457966
-0.0462689
-0.0460956
-0.0461523
-0.0464185
0.16172
-0.0305954
-6.25884
6.26356
0.0464144
-0.0438944
-0.0435556
-0.0433864
-0.0440527
0.154266
-0.0309078
-6.26804
6.2705
0.0470112
-0.0418506
-0.0414452
-0.0410958
-0.0419737
0.147753
-6.27314
-0.0308058
6.27574
-0.16179
0.0481944
25.0744
-0.64435
0.264744
-6.27806
-6.27185
-6.27865
-6.27526
25.05
-0.632069
0.265665
25.0215
-0.623011
0.267566
24.9908
-0.616173
0.268998
24.96
-0.612788
0.270209
24.9289
-0.611813
0.271169
24.8987
-0.612521
0.271041
24.8695
-0.614678
0.27058
24.8411
-0.617773
0.269595
24.8145
-0.621478
0.268173
24.7896
-0.625433
0.266188
24.7663
-0.629218
0.264486
24.7445
-0.632454
0.262312
24.7245
-0.635376
0.260017
24.7058
-0.637486
0.257574
24.6891
-0.639003
0.254837
24.6741
-0.640107
0.251631
24.6611
-0.641386
0.247772
-0.64367
0.242691
25.0021
0.0011846
0.00173945
24.9998
0.0200116
0.00351226
24.9921
0.0401201
0.00558524
24.9801
0.0602934
0.00818119
24.9625
0.0850155
0.0115726
24.9364
0.118495
0.0156382
24.8938
0.165894
0.0224294
24.8219
0.234728
0.0311681
6.17205
0.341423
0.043847
6.17121
6.17233
6.17134
-0.0062779
-0.0644679
6.14638
0.0866193
0.009793
-0.00203279
-0.0193172
-1.52776
1.52248
0.0239235
0.00270219
-0.00294303
-0.0185137
-1.50401
1.49149
0.0301501
0.00378923
-0.00432757
-1.46921
0.0528271
1.4793
-0.0641631
0.00550966
-0.00631956
-1.52877
0.153654
1.54028
-0.166651
0.00774075
-0.00816878
-1.53662
0.0591722
-0.061594
1.53829
0.00888026
-1.54743
-0.00809226
0.058392
-0.0614277
0.0082472
1.5503
-0.0073595
0.0555906
-1.55651
1.55814
-0.0573989
0.00753441
-0.0066304
0.0510742
-1.56161
1.5623
-0.0524183
0.00728592
-0.00608441
0.0479795
-1.56323
1.56334
-0.0494248
0.00741312
-0.00573372
0.0454084
-1.56264
1.56214
-0.0469316
0.00775672
-1.55468
-0.0202757
0.176501
6.15913
-0.171308
0.0385845
-1.53757
-1.55431
-1.53608
23.8709
-0.746463
0.130726
-6.10312
-5.79465
-6.11897
-5.82267
23.8835
-0.720052
0.138527
23.8907
-0.707913
0.142623
23.8956
-0.698888
0.143298
23.8994
-0.693079
0.141827
23.903
-0.689837
0.138953
23.9077
-0.688665
0.134368
23.9138
-0.689075
0.129187
23.9214
-0.690602
0.123548
23.9304
-0.692705
0.11775
23.9408
-0.694927
0.111801
23.9519
-0.697004
0.10658
23.9638
-0.698588
0.101455
23.9759
-0.69955
0.096722
23.9881
-0.699817
0.0922951
24.0003
-0.699381
0.0880351
24.0123
-0.698285
0.0836655
24.0237
-0.696583
0.0787023
-0.694219
0.072205
25.009
-7.2707e-05
0.00132
25.0096
0.0181079
0.00265699
25.0062
0.0416006
0.0041831
24.9993
0.0642467
0.00604069
24.9893
0.0910145
0.00838655
24.9756
0.127126
0.0109258
24.956
0.177938
0.0153961
24.9253
0.255118
0.0205536
6.21335
0.381518
0.0275618
6.22173
6.21345
6.22219
-0.00374027
-0.104805
6.19772
0.11827
0.00590023
-0.00112916
-0.0392205
-1.54176
1.53557
0.0450188
0.0015156
-0.00134538
-0.0813885
-1.50526
1.48664
0.0994998
0.00183838
-0.000170066
0.0046267
-0.074868
0.0751185
-0.00488952
0.000182023
-0.000109746
-0.217856
0.0148254
-0.0263144
0.00562519
0.223832
-1.06207
0.00163098
0.0352503
-0.0605626
0.000260965
1.08549
0.00116918
0.0311
-1.14925
1.16731
-0.0456993
-0.00463301
0.00159743
0.0381991
-1.22408
1.24295
-0.0515128
-0.00716295
0.00215197
0.0437744
-1.29284
1.30783
-0.0523965
-0.00851678
0.00282967
0.0489958
-1.34576
1.35788
-0.0545721
-0.00937507
-1.405
0.024231
0.201016
5.83291
-0.22151
-0.0351369
-1.4965
-1.40137
-1.49863
24.0567
-0.671979
-0.207078
-5.87848
-6.16423
-5.82269
-6.16509
24.0801
-0.643711
-0.20815
24.1056
-0.634523
-0.208024
24.1336
-0.62884
-0.207525
24.1631
-0.625093
-0.206522
24.1934
-0.62323
-0.205052
24.2243
-0.62284
-0.203301
24.2551
-0.623212
-0.20145
24.285
-0.623923
-0.199631
24.3134
-0.624582
-0.197904
24.34
-0.625126
-0.196307
24.3647
-0.625518
-0.194787
24.3874
-0.625582
-0.19339
24.4081
-0.624979
-0.192021
24.4266
-0.623889
-0.190708
24.4432
-0.622343
-0.189519
24.4581
-0.620355
-0.18869
24.4714
-0.617513
-0.188515
-0.612823
-0.189445
25.0082
-0.00498389
0.000869926
25.0151
0.0103267
0.00176461
25.0216
0.0337409
0.00271413
25.0253
0.0586419
0.00377805
25.0245
0.0893097
0.00498193
25.0288
0.119871
0.0060593
25.0407
0.162052
0.0076602
25.069
0.222156
0.00873564
6.27589
0.312315
0.0090359
6.28812
6.27748
6.29163
-0.000932381
-0.109845
6.28344
0.101744
0.00149223
-0.000115518
-0.0444649
-1.57785
1.57958
0.0426998
0.000159272
0.000512021
-0.0820424
-1.59999
1.61642
0.0656359
-0.000515031
0.00287241
-0.0268281
-1.71254
1.75125
0.0600134
-0.00206441
-0.0222502
-0.0277624
-0.0226288
0.00534193
0.111633
-1.71123
1.67988
-0.0798525
-0.00571619
0.105278
-1.60973
0.006389
1.59874
-0.0937569
-0.00687754
0.00691982
0.0740408
-1.58368
-0.00750853
1.58144
-0.0711968
0.00707595
0.0533792
-1.57792
1.57635
-0.0509229
-0.00796529
0.00700411
0.0549695
-1.57541
1.57395
-0.0523094
-0.00820945
0.00689071
0.0494268
-1.5731
1.57244
-0.0473273
-0.00833018
0.00674333
0.0462029
-1.5696
1.56989
-0.0448915
-0.00834339
-1.56996
0.0268579
0.180421
6.2733
-0.156714
-0.0431147
-1.57008
-1.57001
-1.57069
25.0783
-0.523668
-0.247747
-6.27535
-6.2693
-6.27929
-6.27417
25.0772
-0.515011
-0.247437
25.074
-0.504261
-0.24745
25.0712
-0.498656
-0.248611
25.0689
-0.494689
-0.250349
25.0677
-0.492829
-0.252313
25.0669
-0.491625
-0.25437
25.0663
-0.490912
-0.256423
25.0658
-0.490356
-0.258385
25.0652
-0.489494
-0.260191
25.0646
-0.488657
-0.261808
25.0642
-0.487869
-0.263442
25.0634
-0.486773
-0.264391
25.0622
-0.484865
-0.265375
25.0614
-0.483518
-0.266205
25.0607
-0.481487
-0.26705
25.0603
-0.479138
-0.268079
25.0603
-0.475939
-0.269459
-0.472402
-0.271084
25.0067
-0.00930754
0.000475636
25.0166
-5.43931e-05
0.000933272
25.0305
0.0191093
0.0013284
25.0386
0.0495281
0.00164015
25.056
0.0708005
0.0017645
25.0794
0.095485
0.00150657
25.1172
0.123569
0.00051062
25.1825
0.157189
-0.00190025
6.32942
0.199
-0.00692446
6.31835
6.33378
6.31705
-0.0864633
0.00143829
6.34772
0.0689019
-0.0022131
-0.0331891
0.00342278
6.42121
0.0890795
-0.00493338
-0.031411
-0.0334622
-0.0306461
-6.38009
-0.0300375
0.0072039
6.4938
0.0833454
-0.0102527
-0.029377
-0.0292254
-0.0317533
-6.45363
-0.00966576
0.0128531
-6.54272
6.5022
-0.0574761
-0.0188747
0.0628316
-0.0110341
0.0620998
0.0355802
0.0197479
-6.49483
6.47588
-0.145571
-0.0288682
0.0522083
0.0347036
0.0513361
0.0588053
-6.45184
0.0250414
6.40764
-0.184708
-0.0366363
0.0579802
0.0622839
0.0614888
0.0563384
0.0281256
-6.36713
6.33895
-0.177953
-0.041473
0.054252
0.0554505
0.0534087
0.0456188
0.0299611
-6.32515
6.31823
-0.158182
-0.0444279
0.0448143
0.0449232
0.0442294
0.0439918
0.0309242
-6.31429
6.30669
-0.152844
-0.0460384
0.0444224
0.0433868
0.0438198
0.0430911
0.0312379
-6.29826
6.28951
-0.142134
-0.0467312
0.0406109
0.0426008
0.0401391
0.0381645
0.0312499
-6.28218
6.27442
-0.125259
-0.0469025
0.0352352
0.0387606
0.0365458
0.136669
-6.27292
0.031228
6.27312
-0.12118
-0.0468954
25.0747
-0.383358
-0.256974
-6.2714
-6.26965
-6.27165
-6.26934
25.067
-0.375955
-0.255746
25.0625
-0.369152
-0.255361
25.0589
-0.364479
-0.255929
25.0568
-0.361664
-0.256715
25.0549
-0.359626
-0.257489
25.0538
-0.358688
-0.258177
25.0532
-0.358076
-0.258724
25.0526
-0.357091
-0.259102
25.0527
-0.35658
-0.259305
25.0527
-0.355455
-0.259315