/*--------------------------------*- C++ -*----------------------------------*\
| =========                 |                                                 |
| \\      /  F ield         | OpenFOAM: The Open Source CFD Toolbox           |
|  \\    /   O peration     | Version:  2306                                  |
|   \\  /    A nd           | Website:  www.openfoam.com                      |
|    \\/     M anipulation  |                                                 |
\*---------------------------------------------------------------------------*/
FoamFile
{
    version     2.0;
    format      ascii;
    arch        "LSB;label=32;scalar=64";
    class       volVectorField;
    location    "1.5";
    object      U;
}
// * * * * * * * * * * * * * * * * * * * * * * * * * * * * * * * * * * * * * //

dimensions      [0 1 -1 0 0 0 0];

internalField   nonuniform List<vector> 
111542
(
(99.9933 0.00520606 0.00300853)
(99.9709 0.0106316 0.00622792)
(99.9294 0.0162518 0.00977814)
(99.8677 0.0222189 0.0141252)
(99.7841 0.0282722 0.0196534)
(99.6765 0.0336236 0.0268122)
(99.544 0.0363943 0.0358664)
(99.3887 0.0335925 0.0473058)
(99.22 0.0205578 0.0616216)
(99.0581 -0.00914056 0.078819)
(98.9363 -0.0611856 0.0984176)
(98.8952 -0.133193 0.119496)
(98.9613 -0.206945 0.140971)
(99.1257 -0.262735 0.160753)
(99.3441 -0.289947 0.177245)
(99.5683 -0.298197 0.190171)
(99.7716 -0.296343 0.199802)
(99.9455 -0.289011 0.207078)
(100.089 -0.279277 0.212757)
(100.205 -0.269415 0.217509)
(100.295 -0.260965 0.221499)
(100.362 -0.254309 0.225117)
(100.412 -0.249264 0.228801)
(100.449 -0.246153 0.232401)
(100.475 -0.244672 0.235904)
(100.495 -0.244232 0.2394)
(100.51 -0.244803 0.242548)
(100.521 -0.246111 0.245274)
(100.528 -0.247722 0.247663)
(100.534 -0.249399 0.249668)
(100.539 -0.251022 0.251231)
(100.543 -0.252567 0.252292)
(100.547 -0.253847 0.253023)
(100.552 -0.254837 0.253482)
(100.556 -0.255588 0.253685)
(100.562 -0.256186 0.253642)
(100.569 -0.256769 0.253309)
(100.578 -0.257285 0.25285)
(100.588 -0.257836 0.252313)
(100.606 -0.258706 0.251778)
(99.9936 0.0155207 0.00294617)
(99.9715 0.0316396 0.00602671)
(99.9306 0.0487361 0.00953614)
(99.8692 0.0671845 0.0138357)
(99.7848 0.0863816 0.0192996)
(99.6739 0.104218 0.0263654)
(99.5331 0.115732 0.0354847)
(99.3619 0.112048 0.0471791)
(99.1663 0.0784723 0.0619306)
(98.9653 -0.00611832 0.0799232)
(98.8004 -0.159098 0.10089)
(98.7381 -0.373884 0.123296)
(98.8229 -0.597607 0.146667)
(99.0332 -0.758251 0.168415)
(99.2969 -0.837353 0.186255)
(99.55 -0.864786 0.199676)
(99.7688 -0.862506 0.209475)
(99.9507 -0.843583 0.216806)
(100.098 -0.817458 0.222539)
(100.212 -0.790053 0.227221)
(100.299 -0.765333 0.231206)
(100.364 -0.746202 0.235)
(100.41 -0.732992 0.238925)
(100.444 -0.725063 0.242953)
(100.468 -0.720114 0.246941)
(100.485 -0.716691 0.250757)
(100.498 -0.714907 0.25423)
(100.507 -0.71461 0.257263)
(100.514 -0.715217 0.259823)
(100.519 -0.716322 0.261892)
(100.523 -0.717697 0.263481)
(100.527 -0.719231 0.264625)
(100.53 -0.720652 0.265411)
(100.534 -0.721902 0.265906)
(100.539 -0.723056 0.266154)
(100.544 -0.724254 0.266186)
(100.551 -0.725699 0.266013)
(100.559 -0.727365 0.265681)
(100.569 -0.729369 0.265227)
(100.583 -0.731851 0.264781)
(99.9939 0.0254864 0.00279117)
(99.9729 0.0520527 0.00569991)
(99.9335 0.0809791 0.0090469)
(99.8735 0.113119 0.0131738)
(99.7888 0.14819 0.0184612)
(99.6732 0.18383 0.0253822)
(99.5188 0.213672 0.0344951)
(99.3181 0.223989 0.0464504)
(99.0683 0.188006 0.0619507)
(98.7867 0.0570896 0.0815931)
(98.5331 -0.278126 0.105689)
(98.4201 -0.741113 0.133083)
(98.5433 -1.15905 0.15896)
(98.8488 -1.39678 0.183284)
(99.1947 -1.49172 0.202487)
(99.4973 -1.51696 0.215953)
(99.7449 -1.49743 0.225209)
(99.9418 -1.45575 0.231924)
(100.094 -1.40706 0.237127)
(100.209 -1.35861 0.241335)
(100.292 -1.31614 0.244852)
(100.35 -1.28 0.248648)
(100.389 -1.26087 0.253381)
(100.418 -1.25602 0.258829)
(100.441 -1.25681 0.264413)
(100.457 -1.25918 0.269663)
(100.467 -1.26243 0.274265)
(100.473 -1.26629 0.278032)
(100.477 -1.2702 0.280897)
(100.478 -1.27381 0.282901)
(100.479 -1.27692 0.284154)
(100.48 -1.27945 0.284805)
(100.48 -1.28136 0.285018)
(100.48 -1.28271 0.284946)
(100.48 -1.28365 0.284698)
(100.482 -1.28444 0.28435)
(100.483 -1.28536 0.283926)
(100.487 -1.28661 0.283434)
(100.492 -1.28832 0.282896)
(100.501 -1.29024 0.282476)
(99.9945 0.0346585 0.00255195)
(99.9756 0.071149 0.00520973)
(99.9397 0.111846 0.008282)
(99.8837 0.158785 0.0121012)
(99.8021 0.213142 0.0170464)
(99.6853 0.274374 0.0236073)
(99.5186 0.338216 0.0324162)
(99.2813 0.39204 0.0442636)
(98.9442 0.406047 0.0601335)
(98.4431 0.205243 0.0812665)
(98.1846 0.0259593 0.0879639)
(97.8366 -0.630712 0.103415)
(97.9012 -1.43298 0.117236)
(98.379 -1.9468 0.129762)
(98.8798 -2.09633 0.141934)
(99.2742 -2.12559 0.149072)
(99.5947 -2.08491 0.152784)
(99.8407 -2.0084 0.154911)
(100.024 -1.92418 0.156372)
(100.161 -1.84781 0.157553)
(100.332 -1.89718 0.256471)
(100.37 -1.82638 0.261557)
(100.38 -1.78098 0.268748)
(100.384 -1.75922 0.277356)
(100.389 -1.75011 0.286057)
(100.389 -1.74893 0.293814)
(100.382 -1.75312 0.300022)
(100.37 -1.76037 0.304448)
(100.354 -1.76887 0.307132)
(100.336 -1.77756 0.308292)
(100.316 -1.78581 0.308239)
(100.295 -1.79329 0.307324)
(100.273 -1.79986 0.305877)
(100.25 -1.80555 0.304178)
(100.227 -1.81052 0.30243)
(100.205 -1.81504 0.300747)
(100.182 -1.81948 0.299146)
(100.161 -1.82423 0.297587)
(100.141 -1.82952 0.29601)
(100.119 -1.83457 0.294525)
(99.9956 0.042324 0.00222724)
(99.9801 0.08737 0.0045458)
(99.9505 0.138831 0.007229)
(99.9032 0.200489 0.0105765)
(99.8319 0.276138 0.0149351)
(99.7249 0.369488 0.0207575)
(99.5624 0.483345 0.028659)
(99.3117 0.616393 0.0394319)
(98.8672 0.755264 0.0541093)
(98.5218 0.763099 0.0593568)
(97.7062 0.373341 0.0723434)
(96.9001 -0.692795 0.0888352)
(96.9931 -2.34565 0.103145)
(98.1149 -2.95348 0.116887)
(98.8373 -2.98965 0.13384)
(99.3094 -2.94402 0.1405)
(99.678 -2.81873 0.141991)
(99.9313 -2.67326 0.14292)
(100.103 -2.53566 0.144243)
(100.211 -2.42223 0.146021)
(100.28 -2.36523 0.153572)
(100.218 -2.47516 0.268839)
(100.088 -2.47352 0.277729)
(99.9618 -2.45971 0.288458)
(99.8454 -2.44277 0.298714)
(99.7315 -2.43024 0.306694)
(99.6192 -2.42231 0.311293)
(99.5101 -2.41709 0.312198)
(99.4053 -2.41321 0.309711)
(99.3054 -2.40994 0.304509)
(99.2107 -2.40688 0.297432)
(99.1213 -2.4038 0.289329)
(99.0372 -2.4006 0.280942)
(98.9582 -2.39734 0.272838)
(98.8841 -2.39416 0.265384)
(98.8146 -2.3913 0.258735)
(98.7496 -2.38916 0.252849)
(98.6894 -2.38834 0.247539)
(98.6353 -2.39002 0.242543)
(98.5824 -2.39682 0.237712)
(99.997 0.0475776 0.00182202)
(99.9867 0.0987038 0.00371696)
(99.9666 0.158353 0.0058957)
(99.9338 0.232167 0.00859757)
(99.8829 0.327029 0.0120896)
(99.8031 0.452305 0.0167129)
(99.6753 0.621735 0.0229248)
(99.4626 0.855759 0.031288)
(99.0405 1.18603 0.042455)
(98.6295 1.34926 0.046782)
(97.6719 1.49266 0.0445209)
(95.5591 0.723396 0.0401423)
(94.3571 -3.42446 0.0541785)
(98.1441 -4.73158 0.0498853)
(98.6723 -3.9906 0.0635259)
(99.2762 -3.90515 0.0471991)
(99.6725 -3.65471 0.0208994)
(99.8446 -3.40299 0.00820396)
(99.8822 -3.1964 0.0130972)
(99.8138 -3.00996 0.0268406)
(98.6051 -2.76945 0.224524)
(95.295 -2.29817 0.159705)
(95.3479 -2.39635 0.151952)
(95.414 -2.46466 0.14513)
(95.4624 -2.51771 0.138161)
(95.4976 -2.56406 0.130745)
(95.5284 -2.60384 0.122777)
(95.5585 -2.63586 0.114323)
(95.5895 -2.66001 0.105556)
(95.6222 -2.67713 0.0966774)
(95.6574 -2.68841 0.0878756)
(95.6956 -2.69515 0.0793067)
(95.7369 -2.69859 0.0710752)
(95.7812 -2.69982 0.0632407)
(95.828 -2.69972 0.0557998)
(95.8769 -2.69896 0.0486732)
(95.9276 -2.69809 0.0417025)
(95.9792 -2.6977 0.0346536)
(96.0305 -2.69881 0.0272875)
(96.0884 -2.70388 0.0197589)
(99.9989 0.0495554 0.00138028)
(99.9949 0.103148 0.0028046)
(99.9871 0.166619 0.00439711)
(99.974 0.246875 0.00631422)
(99.953 0.352994 0.00870372)
(99.9193 0.498648 0.0117274)
(99.8646 0.706035 0.0155488)
(99.7741 1.01399 0.0202493)
(99.5998 1.49633 0.0256504)
(99.3302 1.89944 0.0278028)
(98.607 2.8416 0.0246087)
(95.4575 5.85414 0.0161953)
(77.0722 -4.24649 0.0290017)
(102.659 -10.2848 0.0222634)
(48.923 -1.66768 -1.25319)
(74.8779 -4.17537 -0.0466025)
(78.8844 -3.48723 -0.0451845)
(82.129 -3.27869 -0.0732862)
(84.8072 -3.23127 -0.0764036)
(86.9843 -3.25811 -0.047274)
(93.2057 -3.74635 -0.197373)
(96.1181 -3.22808 -0.226362)
(96.307 -3.12276 -0.235016)
(96.5071 -3.0548 -0.239987)
(96.6768 -3.01019 -0.2424)
(96.8202 -2.97804 -0.242346)
(96.9456 -2.95293 -0.240085)
(97.0561 -2.93181 -0.236294)
(97.1533 -2.91274 -0.231768)
(97.2389 -2.8946 -0.227209)
(97.3154 -2.87683 -0.22314)
(97.3852 -2.85928 -0.219896)
(97.4503 -2.84197 -0.217641)
(97.5122 -2.82502 -0.216407)
(97.5719 -2.80852 -0.216143)
(97.6302 -2.79257 -0.216766)
(97.6876 -2.77714 -0.218227)
(97.7443 -2.76202 -0.220517)
(97.8002 -2.74653 -0.223684)
(97.868 -2.72851 -0.227727)
(100.001 0.047657 0.000982009)
(100.004 0.099358 0.00187996)
(100.009 0.161043 0.00283901)
(100.018 0.239726 0.00391291)
(100.032 0.344684 0.00510674)
(100.052 0.489675 0.00637283)
(100.085 0.696293 0.00755147)
(100.147 1.00057 0.00822334)
(100.292 1.46503 0.00743824)
(100.341 1.87885 0.00710702)
(100.616 2.87059 0.00283189)
(102.448 5.4139 -0.00740269)
(111.259 3.90526 -0.053939)
(109.132 -6.88739 0.0155537)
(102.753 -6.85797 -0.0425974)
(101.094 -5.00039 -0.0421233)
(100.659 -3.9711 -0.0387052)
(100.502 -3.40469 -0.0401802)
(100.433 -3.07715 -0.043845)
(100.377 -2.88912 -0.0467252)
(100.288 -2.67031 -0.141657)
(100.304 -2.26437 -0.248373)
(100.285 -2.17587 -0.252959)
(100.269 -2.13031 -0.257675)
(100.257 -2.11004 -0.262576)
(100.244 -2.10054 -0.267053)
(100.232 -2.09602 -0.270502)
(100.222 -2.09425 -0.27272)
(100.214 -2.09382 -0.273791)
(100.208 -2.09368 -0.273932)
(100.203 -2.09323 -0.273413)
(100.2 -2.09219 -0.272513)
(100.197 -2.09048 -0.271482)
(100.195 -2.08813 -0.270528)
(100.195 -2.08519 -0.269816)
(100.194 -2.08167 -0.269488)
(100.195 -2.07754 -0.269678)
(100.197 -2.07251 -0.270514)
(100.202 -2.06583 -0.272091)
(100.212 -2.05564 -0.274268)
(100.003 0.0417658 0.000491766)
(100.012 0.087162 0.000921838)
(100.03 0.14135 0.00131231)
(100.06 0.210339 0.00159953)
(100.104 0.301725 0.00167382)
(100.17 0.425767 0.0013241)
(100.274 0.596747 0.00014816)
(100.442 0.83426 -0.00258404)
(100.761 1.16283 -0.00823014)
(100.987 1.40435 -0.0103471)
(101.845 1.86513 -0.0180004)
(103.471 1.77044 -0.0329407)
(105.27 -0.251876 -0.0526623)
(104.806 -2.85566 -0.0352131)
(102.988 -3.56297 -0.0548911)
(101.767 -3.32716 -0.0701582)
(101.143 -2.9596 -0.0786854)
(100.813 -2.65153 -0.0831577)
(100.624 -2.42365 -0.085664)
(100.498 -2.25768 -0.087483)
(100.408 -2.12957 -0.0902966)
(100.306 -1.85711 -0.244461)
(100.271 -1.82901 -0.247175)
(100.245 -1.81162 -0.250465)
(100.228 -1.80268 -0.253829)
(100.216 -1.79768 -0.256743)
(100.206 -1.79395 -0.258878)
(100.199 -1.79047 -0.260165)
(100.194 -1.78673 -0.260702)
(100.19 -1.78232 -0.260656)
(100.189 -1.77701 -0.260209)
(100.188 -1.77075 -0.259527)
(100.188 -1.76363 -0.25875)
(100.19 -1.75577 -0.257986)
(100.192 -1.74729 -0.257326)
(100.195 -1.73829 -0.256856)
(100.198 -1.72881 -0.256672)
(100.204 -1.71879 -0.256884)
(100.212 -1.70815 -0.257629)
(100.23 -1.69717 -0.259105)
(100.004 0.0324127 0.00012576)
(100.019 0.0676436 0.000199831)
(100.047 0.10956 9.75529e-05)
(100.092 0.162512 -0.000282575)
(100.16 0.231566 -0.00112488)
(100.259 0.322587 -0.00275993)
(100.405 0.441867 -0.00572229)
(100.624 0.593842 -0.0108684)
(100.961 0.774636 -0.0195937)
(101.45 0.859392 -0.0336886)
(102.094 0.761929 -0.0549634)
(102.775 0.232041 -0.084532)
(103.136 -0.759669 -0.118326)
(102.888 -1.58998 -0.148914)
(102.243 -1.89006 -0.178578)
(101.613 -1.88815 -0.201125)
(101.169 -1.79636 -0.215278)
(100.881 -1.68771 -0.223688)
(100.689 -1.58683 -0.228885)
(100.554 -1.49962 -0.232242)
(100.459 -1.42575 -0.234541)
(100.395 -1.36165 -0.236335)
(100.349 -1.31273 -0.238413)
(100.315 -1.275 -0.240875)
(100.289 -1.24683 -0.243483)
(100.269 -1.22609 -0.246036)
(100.254 -1.21046 -0.248397)
(100.241 -1.19833 -0.250468)
(100.232 -1.18853 -0.252185)
(100.224 -1.18025 -0.253523)
(100.219 -1.17286 -0.254489)
(100.215 -1.16595 -0.255119)
(100.213 -1.15927 -0.255469)
(100.212 -1.15267 -0.255609)
(100.212 -1.14605 -0.255632)
(100.213 -1.13937 -0.25564)
(100.215 -1.13261 -0.25575)
(100.219 -1.12575 -0.256097)
(100.225 -1.11884 -0.256839)
(100.235 -1.11215 -0.258174)
(100.005 0.0204985 -0.000159647)
(100.024 0.0426865 -0.000400442)
(100.059 0.0690733 -0.000858265)
(100.115 0.101997 -0.00169549)
(100.196 0.144347 -0.00317491)
(100.312 0.198533 -0.00566576)
(100.476 0.265999 -0.00974031)
(100.705 0.344197 -0.0161876)
(101.016 0.420107 -0.0260945)
(101.419 0.45427 -0.0407086)
(101.886 0.390463 -0.0611794)
(102.32 0.153739 -0.0880159)
(102.545 -0.26613 -0.118648)
(102.43 -0.693936 -0.148328)
(102.043 -0.934853 -0.174734)
(101.586 -0.990601 -0.195012)
(101.209 -0.958801 -0.208986)
(100.937 -0.902822 -0.218005)
(100.742 -0.846325 -0.223938)
(100.597 -0.795969 -0.228004)
(100.489 -0.754246 -0.230923)
(100.409 -0.723853 -0.233207)
(100.348 -0.704311 -0.235345)
(100.303 -0.692836 -0.23749)
(100.27 -0.687062 -0.239604)
(100.244 -0.685265 -0.2416)
(100.225 -0.685889 -0.243394)
(100.211 -0.687729 -0.244905)
(100.201 -0.690007 -0.246073)
(100.193 -0.692241 -0.246868)
(100.188 -0.694116 -0.247292)
(100.185 -0.69547 -0.247375)
(100.184 -0.696241 -0.247164)
(100.183 -0.696476 -0.246727)
(100.185 -0.695962 -0.246179)
(100.187 -0.694906 -0.245597)
(100.19 -0.693395 -0.245084)
(100.196 -0.691472 -0.244778)
(100.204 -0.689198 -0.244862)
(100.221 -0.68655 -0.245656)
(100.006 0.00701166 -0.000328951)
(100.026 0.0145663 -0.000679885)
(100.065 0.0235745 -0.00135668)
(100.125 0.0346753 -0.00237884)
(100.213 0.048902 -0.00420106)
(100.336 0.066802 -0.0071314)
(100.506 0.0883693 -0.0117819)
(100.734 0.112103 -0.0188266)
(101.026 0.132865 -0.0293319)
(101.377 0.137991 -0.0439995)
(101.753 0.107553 -0.0634801)
(102.077 0.0209836 -0.0876786)
(102.245 -0.118256 -0.114965)
(102.181 -0.262307 -0.142304)
(101.91 -0.353372 -0.166185)
(101.551 -0.381017 -0.185147)
(101.218 -0.374519 -0.198949)
(100.956 -0.358508 -0.208217)
(100.76 -0.342126 -0.214501)
(100.611 -0.327588 -0.218933)
(100.498 -0.31554 -0.222264)
(100.413 -0.306341 -0.224954)
(100.35 -0.299289 -0.227326)
(100.303 -0.293548 -0.229488)
(100.268 -0.288381 -0.231597)
(100.242 -0.283461 -0.233614)
(100.223 -0.278579 -0.235456)
(100.209 -0.273609 -0.237048)
(100.198 -0.268522 -0.238333)
(100.19 -0.263345 -0.239274)
(100.184 -0.258123 -0.239858)
(100.181 -0.25291 -0.240097)
(100.179 -0.247771 -0.240019)
(100.178 -0.242801 -0.239635)
(100.179 -0.23784 -0.239232)
(100.18 -0.23305 -0.238779)
(100.183 -0.228503 -0.238357)
(100.188 -0.224249 -0.238109)
(100.196 -0.220443 -0.238232)
(100.208 -0.21762 -0.239072)
(99.9938 0.00514427 0.00867887)
(99.9724 0.0104319 0.017881)
(99.9328 0.0160135 0.0282872)
(99.8739 0.0219369 0.041033)
(99.7941 0.02793 0.0571992)
(99.6912 0.0331959 0.0780214)
(99.5643 0.0360368 0.104569)
(99.4158 0.033491 0.138227)
(99.2545 0.0208895 0.180218)
(99.0997 -0.00804354 0.23072)
(98.9837 -0.0588211 0.288751)
(98.9464 -0.129483 0.35161)
(99.0128 -0.201003 0.414963)
(99.1734 -0.254499 0.473211)
(99.3856 -0.280297 0.521877)
(99.6024 -0.287967 0.55999)
(99.7977 -0.285879 0.58857)
(99.964 -0.278429 0.610001)
(100.101 -0.268585 0.626384)
(100.209 -0.258779 0.639431)
(100.293 -0.250243 0.650007)
(100.356 -0.243349 0.659156)
(100.402 -0.238019 0.667799)
(100.436 -0.234452 0.675908)
(100.462 -0.232464 0.683459)
(100.481 -0.231698 0.690541)
(100.496 -0.231938 0.69677)
(100.508 -0.232938 0.702114)
(100.518 -0.234383 0.706724)
(100.526 -0.236002 0.710553)
(100.533 -0.2376 0.713525)
(100.539 -0.239055 0.715574)
(100.546 -0.240277 0.716918)
(100.552 -0.241233 0.717628)
(100.558 -0.241938 0.717708)
(100.565 -0.242462 0.717155)
(100.572 -0.242886 0.715907)
(100.581 -0.243278 0.714133)
(100.591 -0.243755 0.711831)
(100.607 -0.244543 0.708986)
(99.994 0.0153051 0.00847836)
(99.973 0.0311169 0.0173885)
(99.934 0.0480159 0.0276155)
(99.8753 0.066253 0.0401801)
(99.7947 0.0852225 0.0561687)
(99.6884 0.102848 0.0768597)
(99.5533 0.11445 0.103647)
(99.3889 0.111306 0.138104)
(99.2009 0.0789145 0.181682)
(99.0073 -0.00329683 0.235124)
(98.8482 -0.152134 0.297754)
(98.7899 -0.36046 0.366999)
(98.8748 -0.578652 0.437404)
(99.0801 -0.735724 0.501678)
(99.336 -0.812075 0.553799)
(99.5806 -0.838871 0.593119)
(99.7915 -0.836824 0.621922)
(99.9663 -0.818286 0.643264)
(100.107 -0.792469 0.65951)
(100.216 -0.765427 0.672186)
(100.298 -0.740987 0.682311)
(100.359 -0.721559 0.691309)
(100.404 -0.707252 0.699876)
(100.436 -0.697485 0.707942)
(100.459 -0.690512 0.715366)
(100.477 -0.685411 0.722162)
(100.49 -0.682254 0.7283)
(100.499 -0.680991 0.73377)
(100.507 -0.68117 0.738568)
(100.514 -0.682298 0.742655)
(100.519 -0.68398 0.745999)
(100.524 -0.685908 0.748601)
(100.53 -0.687809 0.750532)
(100.535 -0.689557 0.751838)
(100.54 -0.69114 0.752529)
(100.546 -0.692621 0.752597)
(100.552 -0.694156 0.752014)
(100.56 -0.695872 0.750774)
(100.569 -0.69789 0.748843)
(100.584 -0.700283 0.746247)
(99.9943 0.0250946 0.00803373)
(99.9743 0.0512438 0.0164724)
(99.9367 0.0797426 0.0262295)
(99.8793 0.111418 0.0383059)
(99.7982 0.145993 0.0538266)
(99.6873 0.181178 0.0741904)
(99.5388 0.210779 0.101095)
(99.3453 0.221338 0.136557)
(99.1038 0.186547 0.182754)
(98.8311 0.0585875 0.241546)
(98.5855 -0.26935 0.31343)
(98.4758 -0.722391 0.394546)
(98.5959 -1.13011 0.476412)
(98.8937 -1.3616 0.550008)
(99.2295 -1.4543 0.606576)
(99.5224 -1.48032 0.646502)
(99.762 -1.46209 0.674238)
(99.9522 -1.42128 0.694123)
(100.099 -1.37296 0.708922)
(100.209 -1.32442 0.720079)
(100.29 -1.28158 0.728035)
(100.347 -1.24441 0.735609)
(100.388 -1.2225 0.744156)
(100.418 -1.21367 0.75296)
(100.44 -1.21036 0.761185)
(100.456 -1.20929 0.768609)
(100.466 -1.21011 0.775255)
(100.472 -1.21259 0.781111)
(100.475 -1.21612 0.786142)
(100.477 -1.2201 0.790347)
(100.478 -1.22406 0.793756)
(100.478 -1.2277 0.79644)
(100.478 -1.2308 0.79848)
(100.479 -1.23325 0.799946)
(100.48 -1.23512 0.800866)
(100.481 -1.2366 0.801215)
(100.483 -1.23798 0.800912)
(100.486 -1.23954 0.799838)
(100.491 -1.24148 0.797896)
(100.501 -1.24354 0.795197)
(99.9949 0.0340984 0.00735067)
(99.9769 0.0700061 0.0150766)
(99.9426 0.110052 0.0240552)
(99.8892 0.156232 0.0352625)
(99.8109 0.209694 0.0498342)
(99.6986 0.269901 0.0692468)
(99.5379 0.33265 0.0954602)
(99.3081 0.385479 0.130997)
(98.9803 0.398905 0.179028)
(98.4907 0.200731 0.243327)
(98.2328 0.0179569 0.27565)
(97.8899 -0.641996 0.350127)
(97.956 -1.43816 0.43008)
(98.4284 -1.95105 0.505121)
(98.9167 -2.09914 0.562234)
(99.3008 -2.13273 0.598921)
(99.6151 -2.09724 0.621565)
(99.8573 -2.02365 0.636404)
(100.038 -1.94027 0.646975)
(100.173 -1.86335 0.655178)
(100.34 -1.88718 0.774737)
(100.382 -1.81094 0.780314)
(100.396 -1.7563 0.788008)
(100.403 -1.72398 0.797937)
(100.408 -1.70478 0.808815)
(100.407 -1.69534 0.819558)
(100.397 -1.69398 0.829479)
(100.382 -1.69856 0.838176)
(100.364 -1.70705 0.845456)
(100.342 -1.7178 0.851289)
(100.319 -1.72949 0.855771)
(100.295 -1.74113 0.85906)
(100.27 -1.75199 0.861342)
(100.246 -1.76162 0.862766)
(100.222 -1.76987 0.863422)
(100.198 -1.77686 0.863301)
(100.175 -1.7829 0.862269)
(100.154 -1.78849 0.860081)
(100.135 -1.79402 0.856423)
(100.116 -1.79893 0.851042)
(99.9959 0.0415988 0.00642098)
(99.9813 0.0858907 0.0131693)
(99.953 0.136472 0.0210297)
(99.9079 0.197036 0.0308857)
(99.8396 0.271272 0.0437876)
(99.7366 0.362767 0.0611398)
(99.5796 0.474179 0.0848972)
(99.336 0.604013 0.117691)
(98.9013 0.738596 0.162973)
(98.5581 0.741027 0.188423)
(97.7511 0.349069 0.252431)
(96.9532 -0.71387 0.334451)
(97.0487 -2.34858 0.430591)
(98.1584 -2.94323 0.520015)
(98.8575 -2.96473 0.578867)
(99.3123 -2.93402 0.602446)
(99.6779 -2.82625 0.610911)
(99.9328 -2.69195 0.616444)
(100.107 -2.56044 0.622064)
(100.221 -2.44986 0.628624)
(100.295 -2.39585 0.637309)
(100.254 -2.51125 0.74031)
(100.138 -2.49018 0.743795)
(100.02 -2.45775 0.749194)
(99.9082 -2.42471 0.75689)
(99.7938 -2.39954 0.765273)
(99.677 -2.3831 0.772403)
(99.5604 -2.3737 0.777054)
(99.4461 -2.36972 0.778771)
(99.3356 -2.3698 0.777657)
(99.23 -2.37266 0.774163)
(99.1302 -2.37706 0.768899)
(99.0368 -2.38196 0.762471)
(98.9498 -2.38655 0.755379)
(98.8694 -2.39033 0.747936)
(98.7952 -2.39306 0.740236)
(98.727 -2.3949 0.732093)
(98.6651 -2.39644 0.723069)
(98.6108 -2.39899 0.712505)
(98.5601 -2.40522 0.699858)
(99.9973 0.0467348 0.00532266)
(99.9876 0.096975 0.0108595)
(99.9686 0.155546 0.0172601)
(99.9374 0.22795 0.0252413)
(99.8887 0.320878 0.0356294)
(99.8121 0.443428 0.0495206)
(99.6883 0.608922 0.0684269)
(99.4809 0.837152 0.0943819)
(99.0657 1.15866 0.129943)
(98.6568 1.3178 0.150887)
(97.7032 1.45424 0.178947)
(95.6013 0.674645 0.230743)
(94.4132 -3.45832 0.330189)
(98.2268 -4.70306 0.457024)
(98.7288 -3.79253 0.563111)
(99.2647 -3.71364 0.541125)
(99.6771 -3.51361 0.474499)
(99.8761 -3.29929 0.414211)
(99.9306 -3.11568 0.374891)
(99.8627 -2.94881 0.360396)
(98.583 -2.79847 0.49466)
(95.3087 -2.40924 0.333928)
(95.3762 -2.46283 0.358763)
(95.44 -2.48112 0.378404)
(95.4783 -2.48756 0.393071)
(95.501 -2.49628 0.402342)
(95.52 -2.51049 0.40562)
(95.5415 -2.52996 0.403124)
(95.5678 -2.55376 0.395787)
(95.5995 -2.5805 0.384856)
(95.6367 -2.60845 0.371613)
(95.6788 -2.63585 0.357222)
(95.7248 -2.66116 0.342557)
(95.7737 -2.68319 0.328249)
(95.8242 -2.7012 0.314642)
(95.8755 -2.71487 0.301778)
(95.9268 -2.72432 0.289365)
(95.9774 -2.73013 0.276723)
(96.0263 -2.73369 0.262696)
(96.0832 -2.73811 0.245492)
(99.9991 0.0487029 0.00402247)
(99.9955 0.101306 0.00817157)
(99.9883 0.163565 0.0128703)
(99.9761 0.242205 0.0185709)
(99.9564 0.346047 0.025741)
(99.9244 0.48839 0.0349353)
(99.8715 0.690828 0.0468076)
(99.783 0.991272 0.061932)
(99.6094 1.462 0.0803316)
(99.3397 1.8587 0.0910669)
(98.6136 2.7872 0.101347)
(95.4433 5.74947 0.111983)
(77.2596 -4.52211 0.194256)
(54.8844 -5.1226 0.543096)
(67.9604 -2.55223 0.405376)
(73.6003 -2.27977 0.182094)
(78.8208 -2.5882 -0.0026777)
(83.0987 -2.96462 -0.153687)
(86.3904 -3.29039 -0.292457)
(92.9638 -3.75933 -0.551146)
(96.1047 -3.33252 -0.587989)
(96.2109 -3.20446 -0.599531)
(96.3404 -3.1134 -0.606626)
(96.4581 -3.04891 -0.61072)
(96.5725 -3.00236 -0.611346)
(96.6917 -2.96909 -0.608492)
(96.8154 -2.94592 -0.602941)
(96.9405 -2.93011 -0.595728)
(97.0638 -2.91923 -0.587788)
(97.1826 -2.91124 -0.579835)
(97.295 -2.90455 -0.572325)
(97.3996 -2.89799 -0.565476)
(97.4957 -2.89075 -0.559353)
(97.583 -2.88236 -0.553947)
(97.6617 -2.87259 -0.549284)
(97.7322 -2.86131 -0.545572)
(97.7955 -2.84838 -0.543265)
(97.8522 -2.83328 -0.543192)
(97.9148 -2.81422 -0.546452)
(100.001 0.046753 0.00270784)
(100.004 0.0974686 0.00540748)
(100.01 0.157956 0.00830566)
(100.019 0.235021 0.011551)
(100.032 0.337679 0.0151988)
(100.052 0.479305 0.0191796)
(100.085 0.680949 0.0231305)
(100.146 0.977865 0.0260113)
(100.285 1.43151 0.0252598)
(100.331 1.83928 0.0237318)
(100.598 2.81952 0.0125479)
(102.388 5.35398 -0.0317178)
(111.043 4.10011 -0.148437)
(109.045 -6.62026 -0.343754)
(102.767 -6.71002 -0.416814)
(101.121 -4.86882 -0.45441)
(100.682 -3.86029 -0.468349)
(100.52 -3.32148 -0.467461)
(100.443 -3.02025 -0.46221)
(100.377 -2.85334 -0.459028)
(100.268 -2.70649 -0.548485)
(100.271 -2.30176 -0.698045)
(100.251 -2.19785 -0.696614)
(100.238 -2.14229 -0.695198)
(100.23 -2.11657 -0.696723)
(100.224 -2.1058 -0.700767)
(100.22 -2.10349 -0.706077)
(100.219 -2.1064 -0.711795)
(100.219 -2.11203 -0.7174)
(100.219 -2.11839 -0.722559)
(100.22 -2.12415 -0.727094)
(100.22 -2.12857 -0.730947)
(100.219 -2.1313 -0.734141)
(100.218 -2.13226 -0.736731)
(100.216 -2.13158 -0.738872)
(100.214 -2.1294 -0.740791)
(100.212 -2.1258 -0.742849)
(100.21 -2.12063 -0.745532)
(100.21 -2.11325 -0.749392)
(100.217 -2.10198 -0.754582)
(100.003 0.0408996 0.00142309)
(100.012 0.0854734 0.00277928)
(100.03 0.1386 0.00398599)
(100.059 0.20615 0.00491235)
(100.102 0.295506 0.00525199)
(100.167 0.416631 0.00440783)
(100.268 0.583454 0.00125632)
(100.431 0.815106 -0.00626704)
(100.742 1.13554 -0.0220375)
(100.965 1.37282 -0.0327065)
(101.807 1.82617 -0.0702306)
(103.411 1.73183 -0.14315)
(105.188 -0.256316 -0.254502)
(104.734 -2.82761 -0.378977)
(102.951 -3.5489 -0.473422)
(101.747 -3.3191 -0.535107)
(101.132 -2.95919 -0.571054)
(100.809 -2.65843 -0.589287)
(100.624 -2.43619 -0.597679)
(100.5 -2.27444 -0.601149)
(100.408 -2.14706 -0.601961)
(100.305 -1.85644 -0.744291)
(100.268 -1.82535 -0.74266)
(100.243 -1.80524 -0.74223)
(100.227 -1.79346 -0.74292)
(100.216 -1.78584 -0.744182)
(100.208 -1.78013 -0.745547)
(100.203 -1.77543 -0.746741)
(100.2 -1.77111 -0.747608)
(100.198 -1.7666 -0.748058)
(100.196 -1.76146 -0.748064)
(100.196 -1.75549 -0.747642)
(100.196 -1.74863 -0.746857)
(100.197 -1.74091 -0.745791)
(100.198 -1.7324 -0.744607)
(100.2 -1.72317 -0.743525)
(100.203 -1.71323 -0.742854)
(100.208 -1.70249 -0.742993)
(100.215 -1.69093 -0.744416)
(100.23 -1.67913 -0.747606)
(100.004 0.0317536 0.000362448)
(100.019 0.0663069 0.000573617)
(100.046 0.107379 0.00036189)
(100.09 0.159236 -0.00062414)
(100.156 0.226724 -0.0029648)
(100.252 0.31558 -0.00759954)
(100.394 0.431915 -0.0160552)
(100.608 0.580017 -0.0308117)
(100.935 0.755968 -0.0558963)
(101.411 0.838802 -0.0969489)
(102.04 0.743955 -0.159754)
(102.706 0.226496 -0.248751)
(103.058 -0.739155 -0.356662)
(102.814 -1.55326 -0.470726)
(102.184 -1.84972 -0.564994)
(101.57 -1.84729 -0.629895)
(101.141 -1.75703 -0.669647)
(100.865 -1.65088 -0.692834)
(100.681 -1.55244 -0.706477)
(100.552 -1.46737 -0.714407)
(100.461 -1.39525 -0.718534)
(100.399 -1.33204 -0.719755)
(100.354 -1.28302 -0.721427)
(100.321 -1.24466 -0.723886)
(100.295 -1.21569 -0.726548)
(100.276 -1.19438 -0.729214)
(100.26 -1.17864 -0.731879)
(100.247 -1.16682 -0.734472)
(100.237 -1.15766 -0.73685)
(100.229 -1.15014 -0.738876)
(100.222 -1.14352 -0.740457)
(100.217 -1.13726 -0.741552)
(100.214 -1.13106 -0.742182)
(100.211 -1.12474 -0.74241)
(100.21 -1.11822 -0.742384)
(100.211 -1.11149 -0.742309)
(100.213 -1.1045 -0.742456)
(100.216 -1.09727 -0.743158)
(100.222 -1.08987 -0.744793)
(100.231 -1.08268 -0.747668)
(100.005 0.0200416 -0.000424351)
(100.023 0.0418167 -0.00104124)
(100.057 0.0676587 -0.00226252)
(100.111 0.0999577 -0.00457816)
(100.19 0.141313 -0.00876968)
(100.303 0.19421 -0.0159004)
(100.463 0.260037 -0.0275989)
(100.685 0.336354 -0.0462037)
(100.987 0.41036 -0.0749058)
(101.378 0.443823 -0.117552)
(101.832 0.381661 -0.177783)
(102.253 0.150352 -0.257019)
(102.472 -0.260788 -0.349892)
(102.361 -0.678377 -0.444007)
(101.982 -0.911196 -0.52547)
(101.539 -0.963662 -0.585644)
(101.176 -0.931493 -0.625635)
(100.915 -0.876451 -0.651173)
(100.729 -0.821202 -0.667682)
(100.592 -0.772151 -0.678532)
(100.49 -0.731742 -0.68567)
(100.414 -0.702528 -0.690472)
(100.357 -0.683565 -0.694502)
(100.315 -0.672084 -0.698234)
(100.282 -0.666113 -0.701591)
(100.258 -0.664076 -0.704514)
(100.238 -0.664469 -0.706993)
(100.223 -0.666104 -0.708975)
(100.211 -0.668207 -0.710381)
(100.202 -0.670285 -0.711145)
(100.195 -0.672002 -0.711246)
(100.189 -0.673172 -0.710712)
(100.186 -0.673703 -0.709619)
(100.184 -0.673591 -0.70809)
(100.183 -0.672819 -0.706344)
(100.184 -0.671463 -0.704575)
(100.187 -0.669571 -0.703038)
(100.192 -0.667209 -0.702068)
(100.2 -0.664466 -0.702071)
(100.215 -0.66149 -0.703571)
(100.006 0.00684104 -0.000866447)
(100.025 0.0142861 -0.00188565)
(100.063 0.0230717 -0.00366698)
(100.121 0.0339792 -0.00660884)
(100.207 0.0478188 -0.011769)
(100.326 0.0652533 -0.0200996)
(100.491 0.08628 -0.033245)
(100.711 0.109449 -0.0533875)
(100.995 0.129628 -0.0834132)
(101.335 0.134703 -0.125931)
(101.699 0.105264 -0.183101)
(102.013 0.0213741 -0.25475)
(102.176 -0.113787 -0.33632)
(102.114 -0.253707 -0.418582)
(101.85 -0.341394 -0.491171)
(101.502 -0.367757 -0.547695)
(101.182 -0.361161 -0.587362)
(100.933 -0.345404 -0.613759)
(100.747 -0.329387 -0.63141)
(100.607 -0.31524 -0.643488)
(100.502 -0.303636 -0.652004)
(100.423 -0.294879 -0.658285)
(100.364 -0.288101 -0.663368)
(100.32 -0.282421 -0.667814)
(100.286 -0.277295 -0.671932)
(100.26 -0.272439 -0.67567)
(100.24 -0.267645 -0.678923)
(100.224 -0.262791 -0.681617)
(100.21 -0.257847 -0.683682)
(100.2 -0.252834 -0.685066)
(100.191 -0.247782 -0.685749)
(100.184 -0.242729 -0.685759)
(100.179 -0.237719 -0.68516)
(100.176 -0.232794 -0.684031)
(100.175 -0.227966 -0.68279)
(100.175 -0.223292 -0.681495)
(100.178 -0.21882 -0.680362)
(100.182 -0.214611 -0.679722)
(100.189 -0.21083 -0.67997)
(100.201 -0.208045 -0.681607)
(99.9943 0.00500643 0.0135101)
(99.9746 0.0101415 0.0278066)
(99.9381 0.0155859 0.0442727)
(99.8839 0.0213768 0.0644766)
(99.8104 0.0272594 0.0900977)
(99.7155 0.0324952 0.123101)
(99.5986 0.035518 0.165561)
(99.462 0.0335316 0.219738)
(99.3139 0.0221154 0.287589)
(99.1722 -0.00463238 0.369853)
(99.0672 -0.0521542 0.46522)
(99.0357 -0.117867 0.569213)
(99.1009 -0.184595 0.673844)
(99.2537 -0.234184 0.770315)
(99.4536 -0.257796 0.851291)
(99.6567 -0.264614 0.914949)
(99.8389 -0.262277 0.963136)
(99.9931 -0.254772 0.999284)
(100.119 -0.244933 1.02661)
(100.218 -0.235263 1.0477)
(100.293 -0.226945 1.06443)
(100.35 -0.22016 1.07854)
(100.391 -0.214953 1.09146)
(100.421 -0.211662 1.10381)
(100.444 -0.210102 1.11557)
(100.463 -0.209756 1.12651)
(100.478 -0.210232 1.13641)
(100.491 -0.211236 1.14521)
(100.502 -0.212488 1.1529)
(100.512 -0.213739 1.15946)
(100.522 -0.214816 1.16484)
(100.531 -0.215628 1.16904)
(100.54 -0.216135 1.17215)
(100.548 -0.21634 1.17423)
(100.556 -0.216283 1.17531)
(100.563 -0.216054 1.1754)
(100.57 -0.215765 1.17449)
(100.578 -0.21553 1.17258)
(100.587 -0.215492 1.16954)
(100.601 -0.215887 1.1651)
(99.9945 0.0148784 0.0131805)
(99.9752 0.0302388 0.0271273)
(99.9393 0.0466934 0.043258)
(99.8852 0.064483 0.0631465)
(99.8108 0.0830508 0.0885289)
(99.7128 0.100473 0.121515)
(99.5881 0.112388 0.164509)
(99.4364 0.11056 0.220235)
(99.2628 0.0812369 0.291334)
(99.084 0.00491822 0.379512)