/*--------------------------------*- C++ -*----------------------------------*\
| =========                 |                                                 |
| \\      /  F ield         | OpenFOAM: The Open Source CFD Toolbox           |
|  \\    /   O peration     | Version:  2306                                  |
|   \\  /    A nd           | Website:  www.openfoam.com                      |
|    \\/     M anipulation  |                                                 |
\*---------------------------------------------------------------------------*/
FoamFile
{
    version     2.0;
    format      ascii;
    arch        "LSB;label=32;scalar=64";
    class       volVectorField;
    location    "0.85";
    object      Force;
}
// * * * * * * * * * * * * * * * * * * * * * * * * * * * * * * * * * * * * * //

dimensions      [1 1 -2 0 0 0 0];

internalField   uniform (0 0 0);

boundaryField
{
    walls
    {
        type            calculated;
        value           uniform (0 0 0);
    }
    inlet
    {
        type            calculated;
        value           uniform (0 0 0);
    }
    outlet
    {
        type            calculated;
        value           uniform (0 0 0);
    }
    NASA
    {
        type            calculated;
        value           nonuniform List<vector> 
14179
(
(-0.0148563 -0.136559 1.21387e-05)
(-0.0133552 -0.11033 8.95694e-06)
(-0.0698918 -0.564733 0.00122777)
(-0.101267 -0.81427 0.00440322)
(-0.0683961 -0.55327 0.000626449)
(-0.110252 -0.886415 0.00485161)
(0.234436 1.01773 -0.000569951)
(0.0936309 0.469693 -6.82679e-05)
(0.650436 3.19014 0.00302931)
(0.0981252 0.492293 -7.16115e-05)
(-0.00235224 -0.0189499 1.28881e-05)
(-0.0179406 -0.146846 0.000773897)
(0.130295 0.650665 -0.00324242)
(-0.0357423 -0.324855 0.00183055)
(0.0617869 0.308175 -0.00150004)
(1.37625 0.928394 0.00283737)
(1.392 0.922674 -0.000528974)
(0.0202949 0.113449 -6.83067e-05)
(0.156891 0.930415 -0.000134578)
(1.2672 0.839892 -0.00486733)
(-0.0173703 -0.242946 1.06288e-06)
(-0.021784 -0.202446 -0.000101804)
(-0.0198716 -0.275756 -0.00020901)
(-0.00907978 -0.0660412 5.4495e-06)
(-0.0135542 -0.112021 3.32384e-05)
(-0.0098133 -0.0713804 2.69744e-05)
(-0.0129465 -0.106592 0.000548308)
(-0.0152066 -0.108924 0.000578976)
(-0.0133089 -0.121511 0.000623633)
(-0.0155896 -0.213851 0.00416503)
(0.0461748 0.201643 -6.28254e-06)
(0.0517171 0.24384 -9.40062e-06)
(0.0556087 0.262179 -0.00011205)
(0.0455743 0.198494 -2.62798e-05)
(0.0625283 0.2292 2.03508e-06)
(0.0637559 0.233755 -6.50854e-06)
(0.031707 0.114944 1.92614e-06)
(0.0344813 0.12504 1.37886e-06)
(-0.00216745 -0.0103191 0.000169318)
(-0.0129501 -0.0630067 0.000800549)
(0.169036 0.617224 -0.00254334)
(0.0987027 0.355818 -0.00105409)
(0.0988732 0.496247 -0.000120502)
(-0.00637654 -0.0447261 5.16301e-06)
(-0.00578075 -0.0405493 3.60086e-06)
(0.157186 0.789476 -0.000199221)
(-0.00989152 -0.0684496 0.000396409)
(0.0968181 0.483298 -0.00164262)
(0.0899691 0.449548 -0.00166294)
(0.106335 0.434456 -0.000400284)
(0.0836477 0.310954 -2.75247e-05)
(0.0832526 0.309498 -7.72407e-05)
(-0.0657683 1.60405 -0.000262663)
(1.38703 0.922262 -0.000781881)
(-0.0559419 1.3748 7.63607e-05)
(-0.00287231 1.40373 -0.000245997)
(0.0746609 1.12867 1.129e-06)
(0.067282 1.01598 -0.000281852)
(-0.00258232 1.23192 -2.61952e-05)
(0.0892995 0.350763 -2.29544e-05)
(0.159675 0.946645 -0.000255262)
(0.00743934 0.027044 -2.03966e-05)
(-0.0228811 0.568907 -0.00198413)
(0.915973 0.625168 0.074618)
(-0.000725174 0.534172 -0.00215631)
(0.0269887 0.409144 -0.00153693)
(0.127165 0.744136 0.00519541)
(-0.0149458 -0.149478 1.56809e-05)
(-0.0147993 -0.136123 2.40083e-05)
(-0.0995827 -0.80084 0.00432498)
(-0.0118436 -0.0938497 8.40208e-06)
(-0.0133357 -0.110177 1.9123e-05)
(1.31413 0.869983 -0.00568641)
(1.2664 0.838647 -0.00526923)
(0.345709 2.04954 -0.0120081)
(0.260329 1.53773 -0.0083395)
(-0.111748 -0.89966 0.00344776)
(-0.056744 -0.353077 0.0019729)
(-0.0558831 -0.350151 0.00201214)
(-0.0428342 -0.251226 0.00142751)
(0.15644 0.674513 -0.00383792)
(0.175481 0.758556 -0.00422904)
(0.760611 1.30593 -4.97879e-05)
(0.761055 1.30476 -0.000316623)
(0.0933846 0.468446 -8.29984e-05)
(0.0889451 0.427034 -4.98891e-05)
(-0.000757756 -0.00617105 9.10197e-08)
(0.000935339 0.00416474 -1.9993e-07)
(0.000963934 0.00432567 -2.04988e-06)
(-0.000746015 -0.00608964 6.62997e-07)
(0.0989849 0.496688 -7.06405e-05)
(0.0939467 0.484209 -5.87795e-05)
(-0.0201462 -0.164616 0.000932919)
(-0.0135758 -0.0973134 0.000573671)
(-0.020434 -0.145876 0.000824618)
(-0.0124023 -0.0855411 0.000535687)
(-0.0182017 -0.124826 0.000661972)
(0.0852379 0.425235 -0.00239384)
(-0.0201261 -0.183058 0.00102004)
(-0.0248288 -0.340731 0.00200956)
(-0.0209268 -0.293734 0.00103249)
(0.0799379 0.399172 -0.00221898)
(1.37352 0.922487 -0.00265432)
(0.0955938 0.563292 -0.000101091)
(0.103843 0.580445 -4.52838e-05)
(0.105312 0.588488 -0.000104272)
(0.185143 1.28829 -0.000212784)
(0.101525 0.601981 -0.000103283)
(0.156653 0.928942 -0.000157673)
(0.0197322 0.0186271 2.04637e-05)
(0.350443 -0.129143 0.00351299)
(0.367283 -0.145619 0.00172566)
(0.0163145 0.0156793 -4.1512e-05)
(-0.00677499 -0.0290388 0.000234078)
(0.021538 0.0793843 -0.000388746)
(0.00217551 0.00740561 2.89508e-05)
(0.0215701 0.0868149 -0.000320001)
(-0.00960155 -0.0428382 0.000257266)
(-0.00190577 -0.0106807 0.000139792)
(0.0041976 0.0174962 -4.17339e-05)
(-0.0181529 -0.0877631 0.000491514)
(-0.00105449 0.731867 -0.00379708)
(0.0406948 0.607591 -0.00325097)
(-0.0015418 0.981247 -0.00516494)
(0.0317472 0.48029 -0.00287982)
(-0.0347027 0.868083 -0.00469158)
(1.09563 0.73697 -0.00454117)
(-0.0470369 1.16401 -0.00607763)
(0.109228 0.646339 -0.00449973)
(0.155549 0.609072 -0.00360164)
(0.116947 0.457291 -0.00247632)
(0.107755 0.393138 -0.00211051)
(0.152291 0.556341 -0.00298456)
(0.0627632 0.226419 -0.00121365)
(0.0854869 0.308932 -0.00172962)
(-0.0134471 -0.151451 7.30619e-06)
(-0.0172532 -0.240973 3.5334e-05)
(-0.0109067 -0.0839302 7.85276e-06)
(-0.00892586 -0.0649265 1.03122e-05)
(0.000674563 0.00211215 0.534928)
(-0.0129902 -0.10217 0.000532976)
(0.000644104 0.00201748 0.508728)
(-0.0144532 -0.110082 0.000585474)
(0.000968784 0.00243411 0.57853)
(-0.0130315 -0.130047 0.000732288)
(0.00122625 0.00287955 0.579597)
(-0.0121366 -0.139743 0.0015762)
(0.0515153 0.242873 -5.31958e-05)
(0.0384962 0.175066 -1.69672e-05)
(0.0388058 0.176497 -3.96207e-05)
(0.0457874 0.199398 -3.3394e-05)
(0.0450175 0.198256 -1.90659e-05)
(0.0452474 0.199293 -4.11136e-05)
(0.0624711 0.228949 3.13628e-06)
(0.0234228 0.116463 -2.40705e-05)
(0.0208684 0.105837 -2.21091e-05)
(0.0323149 0.117132 6.92674e-06)
(0.0274262 0.0964185 1.7936e-06)
(-0.00656026 -0.029999 0.000307242)
(-0.00552164 -0.0262829 0.000324316)
(0.000494799 0.00163943 0.319822)
(0.000491726 0.00158405 0.312884)
(0.000480177 0.00155358 0.30906)
(0.000338168 0.00154857 0.354548)
(0.092904 0.316532 -0.000685335)
(0.158942 0.555678 0.00198168)
(2.54353e-06 0.00156232 0.33363)
(0.000401661 0.000889178 0.302391)
(0.000122519 0.00054146 0.106544)
(0.0813258 0.285429 -0.000823647)
(0.283734 0.659176 -1.40255e-05)
(0.166175 0.585856 4.21272e-05)
(0.164482 0.579938 -6.72492e-05)
(0.0862087 0.402336 -3.19756e-05)
(0.087358 0.407818 -5.51528e-05)
(0.144021 0.68749 -6.78337e-05)
(0.0827375 0.368258 -4.4269e-05)
(0.0875529 0.397116 -2.53427e-05)
(0.089442 0.40569 -4.99267e-05)
(0.0822618 0.366179 -1.70313e-05)
(-0.00544343 -0.037962 5.31771e-06)
(-0.00630029 -0.0441952 5.84543e-06)
(0.152225 0.805867 -7.65153e-05)
(0.265215 0.457428 0.00958333)
(0.00127031 0.00514796 0.862638)
(0.00034993 0.00274534 0.411895)
(0.0484903 0.141038 -0.000359325)
(-0.0118511 -0.0739001 0.000472794)
(-0.011868 -0.0749011 0.000620696)
(0.00112154 0.00324803 0.679826)
(0.000403293 0.00096015 0.310087)
(0.095963 0.492454 -0.000693947)
(0.000618798 0.0010512 0.374085)
(0.139644 0.733849 0.00273989)
(0.000636717 0.001891 0.346976)
(0.000485164 0.00165146 0.328824)
(-0.000235927 0.00141394 0.352018)
(7.06038e-05 0.00068222 0.112075)
(0.0802351 0.383169 -0.00145309)
(0.102845 0.477713 -0.000747452)
(0.00050996 0.000662695 0.20523)
(9.85542e-05 0.000764397 0.107286)
(0.169059 0.710387 -0.000669172)
(0.0836613 0.311006 -4.42447e-05)
(0.0796263 0.304808 -3.34529e-05)
(0.0947523 0.386262 -6.54038e-05)
(0.066569 0.268117 -1.9453e-05)
(-0.859594 2.748 -0.0210742)
(-0.059135 1.44827 -8.23137e-05)
(-0.18212 1.70211 0.000740273)
(0.0751757 1.13481 -0.000167026)
(0.0577911 1.23507 -9.78274e-05)
(-0.00259395 1.26774 -6.85159e-05)
(0.0335539 1.26582 -7.73419e-05)
(0.109248 1.19879 -0.000148707)
(0.143886 1.85663 -0.000150693)
(0.14314 1.84727 -0.000221121)
(0.11051 1.21261 -0.000122796)
(0.123216 1.25832 -0.000180209)
(0.129526 1.20432 -5.12501e-05)
(0.131229 1.2209 -0.000201687)
(0.123534 1.26075 -6.18956e-05)
(0.0639921 0.265069 -2.05263e-05)
(0.0570322 0.226226 -1.74628e-05)
(0.0884794 0.347528 -1.71105e-05)
(0.112967 0.764888 -0.000149786)
(0.109038 0.686458 -0.000114615)
(-0.000201482 0.00200913 0.567952)
(0.0011208 0.00459727 0.893961)
(0.000994923 0.00307069 0.000127962)
(0.000580953 0.00460954 0.739403)
(0.00199392 0.00675884 0.000110977)
(0.000631583 0.0109309 0.274739)
(-0.0605877 0.581232 -0.00258)
(0.00765247 0.00112195 1.74489)
(0.000449648 0.00126971 0.303546)
(0.0141477 0.516768 -0.00215142)
(0.0008321 0.000684435 0.24469)
(0.0231728 0.485035 -0.00190399)
(0.0611646 0.526185 -0.00215298)
(0.0608982 0.5164 -0.00209892)
(0.000432947 0.00102489 0.244021)
(0.000465174 0.00112295 0.268509)
(0.0573509 0.529055 -0.00205059)
(0.0521332 0.525855 -0.0017434)
(0.0471932 0.516323 -0.000402543)
(2.39521e-05 0.000105645 0.224756)
(-0.0191648 -0.105184 0.00146479)
(0.000329796 0.00198722 0.504632)
(0.0913656 0.508043 -0.00168267)
(0.00048503 0.0016025 0.31943)
(0.000487319 0.0016093 0.320671)
(0.485377 -0.193378 -0.00364882)
(0.224121 0.211897 0.00159)
(0.000193082 0.000293239 0.0779228)
(-0.0534217 -0.525036 0.00196528)
(-0.0704653 -0.568975 0.00214017)
(-0.0550151 -0.54033 0.00254063)
(-0.0705983 -0.570024 0.00218826)
(-0.0741516 -0.598197 0.00282697)
(-0.0587854 -0.576861 0.00298944)
(-0.0824993 -0.664659 0.0034622)
(0.178089 0.770635 -0.00429751)
(0.446057 2.18386 -0.0119411)
(0.181625 0.786324 -0.00437186)
(0.425623 2.08328 -0.011424)
(-0.0686007 -0.554771 0.000705372)
(-0.042393 -0.26434 0.00145477)
(-0.105602 -0.848825 0.00460596)
(-0.048187 -0.300019 0.00165621)
(1.39091 0.922063 -0.00129608)
(1.39169 0.922469 -0.000595901)
(0.241712 1.04914 -0.000734364)
(0.607104 2.97817 -0.00337704)
(0.587628 2.88285 -0.00207558)
(0.225111 0.976878 -0.00109732)
(0.428683 2.54228 -0.00186573)
(0.475355 2.81809 -0.00327984)
(-0.00305528 -0.0221749 2.71528e-05)
(-0.00251515 -0.019458 1.50645e-05)
(0.0200381 0.113066 -0.000132227)
(0.020545 0.115434 -8.59798e-05)
(0.0491688 0.213331 -0.00105307)
(0.0360889 0.163879 -0.00080588)
(0.059351 0.258306 -0.00131612)
(0.0277854 0.125271 -0.000585142)
(-0.109399 -0.880163 0.00480814)
(-0.0695826 -0.505539 0.00277507)
(0.0169805 0.0796029 -0.00031162)
(-0.0112007 -0.062049 0.000401003)
(0.0633177 0.230862 -0.00130743)
(0.0712531 0.259763 -0.00144779)
(0.0343932 0.123962 -0.000704139)
(0.0398015 0.143448 -0.00080025)
(0.311425 1.4089 -0.000831222)
(0.185614 0.805303 -0.000200339)
(0.333532 1.57714 -0.000966714)
(0.141256 0.709053 -0.000262066)
(-0.019404 -0.163217 0.000216608)
(-0.0450365 -0.333487 0.000447661)
(-0.00730806 -0.053346 -1.76289e-06)
(-0.00135673 -0.0134861 1.04254e-05)
(-0.0202903 -0.138617 7.9881e-05)
(-0.02694 -0.187623 0.000143365)
(0.0954719 0.390381 5.98702e-05)
(0.0828135 0.307923 -0.000176974)
(0.0830788 0.308865 -0.000106305)
(0.106646 0.437582 -0.000833817)
(0.162455 0.713621 -0.000369568)
(0.138961 0.640414 -0.00023958)
(0.169632 0.745792 -0.000426696)
(0.177846 0.829342 -0.000271011)
(-0.00298995 1.41964 -0.000300055)
(0.0594374 0.896735 -0.000529711)
(-0.00301903 1.37276 -0.000690578)
(0.0641563 0.967434 -0.00031229)
(-0.0668062 1.62988 -0.00032653)
(1.38952 0.922255 -0.00049464)
(-0.065824 1.60487 -0.000770908)
(0.480127 4.11845 -0.0026002)
(0.087049 0.342093 -7.51702e-05)
(0.0758387 0.297899 -0.000160041)
(0.0682561 0.250115 -7.30099e-05)
(0.0640893 0.235022 -2.29061e-05)
(0.0548242 0.287311 -0.000209167)
(0.179262 0.884674 -0.00137435)
(0.0196401 0.108939 -8.98894e-05)
(0.0450321 0.241468 -0.000144771)
(0.827304 5.17874 0.000877555)
(0.390832 2.61154 -0.000108487)
(0.0382749 0.138684 -3.5719e-05)
(0.0347972 0.126215 -5.17406e-06)
(1.24881 0.829627 -0.00376981)
(0.0898043 0.62171 -0.00341243)
(0.245626 0.23038 -0.00128647)
(0.495804 -0.205588 0.000532029)
(0.232517 0.218765 -0.00130061)
(0.516821 -0.21467 0.000290275)
(0.0634901 0.232736 7.01639e-07)
(0.0304965 0.107227 5.01273e-06)
(0.0336475 0.121993 8.53291e-06)
(0.283669 0.659061 -3.9972e-05)
(0.273055 0.801615 -0.000154767)
(0.00104348 0.00358943 0.731736)
(0.000430601 0.0019824 0.362466)
(0.000616093 0.00108361 0.383014)
(-0.20015 1.85429 -0.00030706)
(-0.0632623 1.54542 -0.000128734)
(1.38245 0.922551 -0.0014324)
(0.0244897 0.0231319 2.53618e-05)
(0.354692 -0.145787 0.000136355)
(0.364589 -0.148233 0.000586375)
(0.0230416 0.0217269 1.72454e-05)
(0.000644724 0.00243657 0.546137)
(0.000491116 0.00125472 0.380062)
(0.000445773 0.00132202 0.341366)
(0.000663789 0.00195266 0.363958)
(-0.0902807 -0.726681 0.00388076)
(1.35005 0.893857 -0.00584922)
(1.33563 0.884274 -0.00578606)
(1.31046 0.867566 -0.00567155)
(1.3343 0.883391 -0.00578137)
(0.396657 1.94046 -0.0106644)
(0.174986 0.756614 -0.00422463)
(0.176828 0.765052 -0.00426842)
(0.418089 2.04624 -0.011232)
(0.269421 1.59168 -0.00867677)
(0.288146 1.70261 -0.00924189)
(-0.0244385 -0.144417 0.000810671)
(-0.0312676 -0.183922 0.00103232)
(-0.055635 -0.346026 0.0019241)
(-0.0502299 -0.312599 0.00172896)
(-0.040961 -0.240154 0.00135676)
(-0.0338169 -0.198669 0.00111668)
(0.253249 2.15406 -0.0115772)
(0.240204 2.0422 -0.0110542)
(0.0247843 0.0914604 -0.000459081)
(0.0231176 0.0933875 -0.000507753)
(0.0347755 0.141348 -0.000517518)
(0.0328662 0.121524 -0.0006359)
(0.00155962 0.00576186 4.03677e-05)
(0.0261537 0.111733 -0.000464654)
(0.0354274 0.152918 -0.000720604)
(0.0209101 0.0928231 -0.000367198)
(0.0408459 0.151212 -0.000807341)
(0.0448319 0.182768 -0.000719292)
(0.0351424 0.129993 -0.00068515)
(0.0425747 0.635394 -0.00338679)
(-0.00162616 1.02487 -0.00539441)
(-0.00181754 1.13007 -0.00594571)
(0.0469119 0.700402 -0.00373827)
(-0.0544673 1.34667 -0.00703679)
(1.3011 0.861333 -0.00562156)
(-0.056963 1.40799 -0.0073602)
(-0.0488888 1.20953 -0.0063188)
(-0.053256 1.31692 -0.00688223)
(1.29768 0.859061 -0.00560632)
(-0.00187173 1.15867 -0.00609479)
(0.0512562 0.766387 -0.00408221)
(-0.0019785 1.21494 -0.00639267)
(0.0482377 0.72068 -0.00381749)
(0.226056 1.33656 -0.00700086)
(0.411058 2.55508 -0.0160251)
(0.237016 1.57871 -0.00858709)
(0.246962 1.45779 -0.00802561)
(0.404212 2.52056 -0.0136198)
(0.376767 2.3486 -0.012964)
(0.195563 1.29959 -0.00844899)
(-0.0815586 -0.598823 0.0028247)
(-0.102495 -0.824436 0.00462169)
(-0.0668266 -0.443572 0.00245374)
(-0.0568736 -0.35437 0.00199991)
(-0.0801325 -0.537111 0.00287819)
(-0.0531128 -0.331682 0.00190966)
(-0.0242574 -0.134967 0.000799471)
(-0.0446597 -0.262355 0.00151419)
(0.00343399 0.0105829 0.000175142)
(-0.0472137 -0.278558 0.00164632)
(0.230709 1.03651 -0.00605006)
(0.178966 0.773215 -0.00428883)
(0.237408 1.11861 -0.00617328)
(0.176973 0.764824 -0.0042507)
(0.224657 1.01276 -0.0056143)
(0.24073 1.13372 -0.00668511)
(0.367185 1.79454 -0.0100776)
(0.104995 0.410472 -0.00223611)
(0.0889971 0.347848 -0.00192693)
(0.09483 0.345882 -0.0018752)
(0.0749464 0.273236 -0.00151334)
(0.0864357 0.337868 -0.00188522)
(0.0805186 0.314804 -0.00177223)
(0.0551049 0.198729 -0.0010748)
(0.042331 0.15257 -0.000845168)
(0.122014 0.282796 -0.00152365)
(0.103376 0.23949 -0.0012499)
(-0.0207638 -0.157338 0.000898216)
(-0.0182782 -0.130705 0.000749477)
(0.0808651 0.413281 -0.00255619)
(0.0854882 0.426666 -0.00230951)
(0.123542 0.652193 -0.00417821)
(-0.0193019 -0.190719 0.000993332)
(-0.0199427 -0.181795 0.00101586)
(-0.0172131 -0.18938 0.000736959)
(-0.0212727 -0.294866 0.00156016)
(0.0767767 0.367397 -0.00215361)
(0.0813703 0.406179 -0.00218917)
(-0.00442676 -0.0186422 0.000153809)
(0.00562746 0.0216129 -5.29924e-06)
(-0.00105914 -0.00484304 9.4799e-05)
(0.0124385 0.0455403 -0.000176911)
(0.0176198 0.646304 -0.00338718)
(-0.00126984 0.846099 -0.00444472)
(0.0268101 0.56537 -0.00304695)
(0.0360174 0.538828 -0.00294439)
(-0.104851 0.996993 -0.00655954)
(-0.0410301 1.01821 -0.00535542)
(1.21324 0.810213 -0.00214984)
(-0.454332 1.47878 -0.00717596)
(-0.0448997 1.11207 -0.00582106)
(-0.140093 1.30425 -0.0067078)
(-0.0119968 -0.0626732 0.000403473)
(-0.0088567 -0.0455534 0.000304843)
(-0.0106629 -0.0545956 0.000359081)
(-0.0101824 -0.0533957 0.00034942)
(-0.0249133 -0.136721 0.000678216)
(0.000929337 0.00231522 0.387793)
(0.0582685 0.391975 -0.00214225)
(0.0917289 0.635204 -0.00357068)
(0.0602436 0.404962 -0.00226952)
(0.125469 0.457923 -0.00243845)
(0.152633 0.557356 -0.00296617)
(0.072373 0.261172 -0.00138767)
(0.0614548 0.214974 -0.00115198)
(0.0805803 0.282379 -0.00168684)
(0.0885114 0.319609 -0.0017131)
(0.452404 -0.189069 -0.00231013)
(0.209542 0.192423 -0.000238708)
(0.256551 0.238616 -0.00113473)
(0.523765 -0.218522 -0.000532898)
(0.219668 0.952125 -0.00516375)
(0.575399 2.81962 -0.0149847)
(0.230035 0.997188 -0.00533584)
(0.550731 2.69855 -0.0144667)
(-0.0693904 -0.560851 0.00101172)
(-0.00391258 -0.0274066 6.22572e-05)
(-0.00362113 -0.025611 4.8708e-05)
(0.206976 0.897783 -0.0016378)
(0.65424 3.20832 -0.00697231)
(0.214609 0.93079 -0.00203718)
(-0.061493 -0.446966 0.00242576)
(0.174252 0.766513 -0.000789074)
(0.141328 0.652427 -0.000773585)
(0.174538 0.76784 -0.000910753)
(0.141171 0.65163 -0.000676415)
(0.0585764 0.214653 -0.000228833)
(0.0606501 0.222002 -0.000184655)
(-0.0350724 -0.25711 0.000295633)
(0.158958 0.786878 -0.000931246)
(0.0618113 0.325074 -0.000384104)
(0.037637 0.136396 -0.000145597)
(0.0354902 0.128493 -0.000101223)
(1.39155 0.922463 -0.000469798)
(0.035521 0.0334099 -9.82112e-07)
(0.345765 -0.143514 1.41473e-05)
(0.0381317 0.0358596 -9.88692e-06)
(0.342952 -0.142282 7.46475e-06)
(-0.0206604 -0.130524 0.000696557)
(-0.0232628 -0.14655 0.000788955)
(-0.0403049 -0.251483 0.00138251)
(-0.0953649 -0.767218 0.00412595)
(-0.0351857 -0.219966 0.00120463)
(0.183377 0.79406 -0.00441089)
(0.195123 0.84569 -0.0046831)
(0.102478 0.448509 -0.0023968)
(0.0769218 0.353095 -0.0018809)
(0.106067 0.464333 -0.00248442)
(0.0735294 0.337385 -0.00179311)
(0.0431177 0.19655 -0.000998477)
(0.0679751 0.296371 -0.00153458)
(0.0749151 0.326985 -0.00171062)
(0.0490289 0.223967 -0.00115716)
(0.0575332 0.210439 -0.00121918)
(0.0559554 0.204532 -0.0011852)
(0.0615417 0.224413 -0.00127651)
(0.0577112 0.21054 -0.00120868)
(0.0139077 0.0710716 -0.000355486)
(0.0680498 0.333858 -0.00175688)
(-0.0690425 -0.501483 0.00274829)
(0.0245608 0.117543 -0.000538057)
(-0.00740649 -0.041793 0.000280723)
(0.0317112 0.153212 -0.000745163)
(0.0312016 0.112867 -0.000659939)
(0.0298514 0.1079 -0.000631112)
(0.0331852 0.11962 -0.000683064)
(0.0306164 0.110412 -0.000637871)
(1.3131 0.869291 -0.00567928)
(1.28018 0.847506 -0.00545858)
(0.126549 0.119198 -0.000743478)
(0.362459 -0.150501 0.000494643)
(0.372155 -0.154526 0.000509663)
(0.114746 0.108069 -0.000677866)
(0.473594 -0.196403 0.00059605)
(0.216213 0.203623 -0.00123551)
(0.202178 0.190469 -0.00116247)
(0.453886 -0.188336 0.000586683)
(-0.000123467 -0.027566 6.07356e-05)
(-0.00016834 -0.0307589 9.23569e-05)
(-0.0537078 -0.527931 0.0016542)
(-7.08225e-05 -0.0237036 8.90334e-05)
(-0.000274514 -0.0385122 0.000117609)
(-0.0705796 -0.570013 0.00179602)
(-0.053944 -0.529981 0.00230438)
(-3.5365e-05 -0.0211236 0.000102104)
(-5.39544e-05 -0.0224612 9.8652e-05)
(-0.0715512 -0.577535 0.0024916)
(-0.0718366 -0.579802 0.00253373)
(-1.65064e-05 -0.0196687 0.000106444)
(-0.0574113 -0.563545 0.0028291)
(-0.000227901 -0.0351532 0.000178947)
(-0.079011 -0.636875 0.00321355)
(1.37114 0.907983 -0.00581496)
(1.36831 0.906071 -0.00585171)
(1.36466 0.903616 -0.00587694)
(1.36987 0.907098 -0.00586342)
(0.205963 0.892877 -0.00485801)
(0.522564 2.56071 -0.0138496)
(0.541168 2.65176 -0.014243)
(0.188965 0.81927 -0.0044856)
(0.178904 0.774284 -0.00431341)
(0.235652 1.06326 -0.00588494)
(0.266332 1.25619 -0.00689559)
(0.439538 2.15178 -0.011777)
(0.18039 0.780845 -0.00434544)
(0.242998 1.0968 -0.00605244)
(0.25575 1.20593 -0.00663922)
(0.432079 2.11508 -0.0115941)
(1.3832 0.916917 -0.00258101)
(1.38534 0.918371 -0.00205392)
(1.38947 0.921103 -0.00139945)
(1.38742 0.919754 -0.00197467)
(0.484377 2.87184 -0.00374691)
(0.477149 2.82868 -0.00492364)
(-0.00319844 -0.0230234 3.13465e-05)
(-0.0691753 -0.559187 0.000933923)
(-0.00347875 -0.0247361 4.38016e-05)
(0.0192773 0.108673 -0.000239172)
(0.0195489 0.110258 -0.000201947)
(0.0199022 0.112308 -0.000146493)
(0.0196897 0.111077 -0.000189031)
(0.22176 0.962287 -0.00121356)
(0.212688 0.922585 -0.00155919)
(0.662989 3.2519 -0.00559579)
(-0.055643 -0.369653 0.00201782)
(-0.0442279 -0.27564 0.0015183)
(-0.0650939 -0.472916 0.00257564)
(-0.0462774 -0.288259 0.00158961)
(-0.0604177 -0.401063 0.00219722)
(0.489353 4.19185 -0.00415874)
(0.500172 4.28427 -0.00350546)
(0.0827001 0.307509 -0.000202151)
(0.106638 0.437586 0.00026326)
(0.106635 0.437609 -0.000966674)
(0.0825027 0.306809 -0.000274253)
(0.13786 0.635631 -0.000511138)
(0.172963 0.760641 -0.000553287)
(0.174066 0.765632 -0.000673734)
(0.140824 0.649847 -0.000578763)
(0.106552 0.437271 0.000126859)
(0.0822419 0.305876 -0.000370691)
(0.10644 0.436833 -0.00109942)
(0.0824013 0.306444 -0.000301081)
(0.0594375 0.899443 -0.000522813)
(-0.00294979 1.33233 -0.000777659)
(-0.00265034 1.17387 -0.000993117)
(0.0594773 0.900799 -0.000755645)
(-0.0578801 1.40876 -0.00126379)
(1.39105 0.922129 -0.00101438)
(-0.0531945 1.29461 -0.00146794)
(-0.0645953 1.57436 -0.000886919)
(-0.0596219 1.45155 -0.00118141)
(1.39207 0.922784 -0.00089436)
(-0.00254801 1.12317 -0.00103061)
(0.0530946 0.804308 -0.000922706)
(-0.00228467 0.996902 -0.00115676)
(0.0586045 0.887781 -0.000810158)
(0.32801 1.48403 -0.00102756)
(0.23887 1.03671 -0.000876656)
(0.607122 2.97854 -0.00293354)
(0.364844 1.72468 -0.00193989)
(0.347027 1.64093 -0.00111486)
(0.606226 2.97438 -0.0025828)
(0.233387 1.01288 -0.00101465)
(0.322996 1.46095 -0.00163295)
(0.0698506 0.274362 -0.000178721)
(0.0641145 0.25167 -0.000211684)
(0.0693022 0.253953 -9.03104e-05)
(0.0606892 0.22232 -0.000171346)
(0.0643164 0.252446 -0.000236505)
(0.748404 4.68349 -0.00373882)
(0.454423 2.69449 -0.0023783)
(0.777242 4.86521 -0.00425264)
(0.511858 3.42408 -0.00350762)
(0.495976 3.31745 -0.00286038)
(0.46569 2.76112 -0.00276911)
(-0.0329839 -0.242522 0.000185452)
(-0.021857 -0.147683 0.000172344)
(-0.00292758 -0.0214708 2.31139e-05)
(-0.0209458 -0.142306 0.000108985)
(-0.00282514 -0.0210232 1.97055e-05)
(0.0611527 0.321058 -0.000238272)
(0.156766 0.775129 -0.000575995)
(0.159079 0.787129 -0.000699864)
(0.0460017 0.247786 -0.00029221)
(0.0201247 0.113495 -0.000116864)
(0.0460894 0.247732 -0.000186084)
(0.0202233 0.113897 -0.000100629)
(0.041473 0.150287 -4.56264e-05)
(0.0355843 0.128933 -0.000101269)
(0.0655045 0.238819 -0.00134672)
(0.0679616 0.247761 -0.00138987)
(0.0317931 0.1111 -0.000632596)
(0.0358807 0.129317 -0.000730742)
(0.0376881 0.131705 -0.000734572)
(0.0375692 0.135397 -0.000760451)
(0.272185 0.79926 -0.000424292)
(0.272839 0.801027 -0.00024945)
(0.283836 0.659639 -0.000277027)
(0.283929 0.659818 -0.000225021)
(-0.202369 1.87437 -0.000403222)
(-0.0669749 1.63472 -0.000525774)
(1.39066 0.922226 -0.000448746)
(-0.855244 2.78059 -0.00112752)
(-0.0666251 1.62532 -0.000655693)
(-0.201128 1.861 -0.00084479)
(0.063407 0.232414 -5.25497e-05)
(0.0637919 0.233947 -3.72899e-05)
(0.0350345 0.127009 -2.30031e-05)
(0.0336818 0.118316 -2.60538e-05)
(0.0308002 0.108315 9.5731e-09)
(0.0350153 0.127009 -1.46405e-05)
(0.413872 2.44876 -0.0130768)
(0.38231 2.26174 -0.012168)
(0.0002952 -0.00132246 2.03619e-05)
(-0.00263695 -0.0182907 0.000112143)
(-0.0277401 -0.174118 0.000946071)
(-0.0244124 -0.15363 0.000828979)
(-0.00767354 -0.0474318 0.000271954)
(-0.00394898 -0.0258833 0.000153284)
(1.34894 0.893125 -0.0058438)
(1.35864 0.899583 -0.00587561)
(1.36552 0.904178 -0.00588285)
(1.35943 0.900116 -0.00587662)
(-0.0219705 -0.13014 0.000731143)
(-0.0161343 -0.0963808 0.000542707)
(0.347249 2.05319 -0.0110668)
(0.371942 2.20013 -0.011849)
(-0.0938564 -0.755191 0.00405475)
(-0.0292179 -0.183217 0.000997174)
(-0.033406 -0.209008 0.00114312)
(-0.00936281 -0.057205 0.000325584)
(-0.0140781 -0.0844853 0.000476863)
(0.199136 0.863205 -0.00475793)
(0.511954 2.5086 -0.0136102)
(0.190691 0.826682 -0.00453313)
(0.477279 2.33786 -0.0127417)
(0.282869 2.40696 -0.0129517)
(0.291191 2.47819 -0.0133434)
(0.0653525 0.267155 -0.0010914)
(0.0529944 0.19642 -0.00106376)
(0.0558133 0.206909 -0.00112229)
(0.0614162 0.250967 -0.00166308)
(0.0974692 0.426428 -0.00227349)
(0.0649431 0.297645 -0.00157227)
(0.0930599 0.406992 -0.00216377)
(0.0690023 0.31643 -0.00167774)
(0.0591144 0.219196 -0.00119053)
(0.0567505 0.210397 -0.0011422)
(0.0701558 0.286911 -0.00117606)
(-0.00229733 1.37734 -0.00724418)
(0.0575471 0.861019 -0.00458084)
(0.0588558 0.880729 -0.00468385)
(-0.0022424 1.35039 -0.00710319)
(-0.0642135 1.58583 -0.00828533)
(1.34618 0.891279 -0.00583257)
(-0.0649508 1.60375 -0.00837657)
(-0.00231654 1.38664 -0.00728992)
(0.0603396 0.903114 -0.00479803)
(-0.0023498 1.39988 -0.00735656)
(0.0592903 0.887278 -0.00471765)
(-0.0637781 1.57517 -0.00823288)
(1.34314 0.88926 -0.0058195)
(-0.0625753 1.54572 -0.00807934)
(0.316995 2.69859 -0.0144774)
(0.311088 2.64808 -0.0142166)
(0.0426411 0.157894 -0.000845688)
(0.0469301 0.173855 -0.000936335)
(0.054908 0.224206 -0.00147775)
(0.0517882 0.191932 -0.00103848)
(0.0596054 0.243521 -0.000988927)
(0.0483799 0.179248 -0.00096659)
(0.0815673 0.356319 -0.0018784)
(0.0595455 0.272666 -0.00143268)
(0.0868314 0.379534 -0.00200992)
(0.0547818 0.250613 -0.00130798)
(-0.0576456 1.42468 -0.00744983)
(-0.0599025 1.48018 -0.00773713)
(1.32164 0.874985 -0.00572251)
(0.0520977 0.779078 -0.00415086)
(-0.00201274 1.23102 -0.00647952)
(-0.00211582 1.28652 -0.00676835)
(0.0544329 0.814159 -0.00433579)
(-0.00214742 1.30295 -0.00685475)
(0.0569846 0.852532 -0.00453754)
(0.0552362 0.826233 -0.00439793)
(-0.00221763 1.33877 -0.00704467)
(-0.0605788 1.49679 -0.00782405)
(1.32699 0.878536 -0.00574496)
(-0.0620888 1.53383 -0.00802005)
(0.0752348 0.294663 -0.00167408)
(0.075399 0.295175 -0.00167805)
(0.0553969 0.202308 -0.0011708)
(0.0555915 0.203156 -0.00117739)
(0.075731 0.296785 -0.00168422)
(0.240421 1.13309 -0.00625745)
(0.403571 1.97464 -0.0108774)
(0.225875 1.01847 -0.00565015)
(0.175013 0.756905 -0.00423321)
(0.17602 0.76142 -0.0042535)
(0.232827 1.05037 -0.00581802)
(0.411398 2.01328 -0.0110553)
(0.25169 1.18667 -0.00654)
(0.0767268 0.300139 -0.00170209)
(0.0763571 0.298742 -0.00169564)
(0.0754007 0.295135 -0.00167774)
(0.0554571 0.202483 -0.00117114)
(0.0569209 0.207696 -0.00119521)
(0.263107 1.75242 -0.0094929)
(0.418983 2.61307 -0.0141836)
(0.275569 1.62804 -0.00885313)
(0.282175 1.66722 -0.00906275)
(0.44967 2.80493 -0.0151949)
(0.439953 2.74426 -0.0148782)
(0.26985 1.79747 -0.0097208)
(-0.00183725 -0.0127126 9.95711e-05)
(-0.0265511 -0.15664 0.000878888)
(0.0516564 0.2524 -0.0013044)
(0.00580477 0.0282187 -0.000116998)
(-0.0290017 -0.170816 0.000958404)
(-0.00952632 -0.0545119 0.000333073)
(-0.0660581 -0.438308 0.00241788)
(-0.053903 -0.335265 0.00186066)
(-0.0662574 -0.481292 0.00262566)
(-0.0521187 -0.324239 0.00179481)
(-0.0620219 -0.411624 0.00225911)
(0.460845 2.87484 -0.0155616)
(0.470004 2.93215 -0.0158578)
(0.293171 1.95337 -0.0105321)
(0.28729 1.91406 -0.0103283)
(-0.0214097 -0.119269 0.000703008)
(-0.0385709 -0.226226 0.00127408)
(0.0449858 0.219251 -0.00111844)
(0.00249142 0.0106935 -1.89674e-05)
(0.0387344 0.188166 -0.000944553)
(-0.0361667 -0.212277 0.00119312)
(-0.0125576 -0.0709935 0.000425768)
(0.0291756 0.105343 -0.000615092)
(0.029526 0.106695 -0.000624137)
(0.0291904 0.105368 -0.000614682)
(0.0300874 0.108527 -0.000628923)
(0.118322 0.346395 -0.00185786)
(0.144194 0.422356 -0.00230024)
(0.191377 0.443888 -0.00248199)
(0.186071 0.43157 -0.00241155)
(0.158767 0.368188 -0.00204529)
(0.166898 0.387073 -0.00215788)
(0.151179 0.44287 -0.00241882)
(-0.599288 1.95204 -0.00974919)
(1.30777 0.865753 -0.00565092)
(-0.0562326 1.39005 -0.00726609)
(-0.168091 1.56396 -0.00808475)
(-0.571768 1.86257 -0.00936245)
(-0.502291 1.63567 -0.00807304)
(-0.520306 1.69468 -0.00846937)
(-0.145355 1.35318 -0.00699108)
(-0.0504005 1.24672 -0.00651084)
(1.29047 0.854262 -0.00555068)
(-0.55457 1.80669 -0.00902823)
(0.0869975 0.317239 -0.00172799)
(0.0801398 0.29221 -0.00160802)
(0.139646 0.131546 -0.00081622)
(0.397982 -0.165251 0.000548641)
(0.384224 -0.159536 0.000528178)
(0.153253 0.144377 -0.000889755)
(0.0537773 0.188061 -0.00101485)
(0.0502158 0.181043 -0.00098414)
(0.0457033 0.164749 -0.000905756)
(0.0404242 0.141274 -0.000781636)
(0.183792 0.173163 -0.0010599)
(0.414793 -0.172222 0.000562761)
(0.43241 -0.1795 0.000579024)
(0.168767 0.159004 -0.000974098)
(0.679879 3.33411 -0.00764104)
(0.218472 0.947433 -0.00217762)
(0.206692 0.896336 -0.0024273)
(0.689869 3.38287 -0.00913466)
(0.202237 0.87679 -0.0036096)
(0.662608 3.24842 -0.0126479)
(0.226131 0.980477 -0.00383475)
(0.642258 3.14826 -0.0129419)
(0.248234 1.07619 -0.00536997)
(0.624077 3.05866 -0.0147228)
(0.243244 1.05447 -0.00508172)
(0.606944 2.97475 -0.0147451)
(-0.0697469 -0.563615 0.00115839)
(-0.0359668 -0.263344 0.000577035)
(-0.047008 -0.342588 0.0017973)
(-0.060139 -0.437207 0.00236971)
(-0.0981981 -0.789801 0.00425917)
(-0.0535314 -0.526155 0.00183899)
(-0.00535437 -0.161459 0.000601786)
(-0.00541623 -0.163261 0.000558685)
(9.07998e-05 -0.0119225 4.55648e-05)
(-0.000157037 -0.0299459 9.16063e-05)
(-0.0040453 -0.0282246 6.7334e-05)
(-0.070375 -0.568497 0.00149675)
(-0.00428803 -0.0297189 8.11204e-05)
(-0.0704782 -0.569138 0.0020003)
(-0.00528139 -0.0358282 0.000139432)