/*--------------------------------*- C++ -*----------------------------------*\
| =========                 |                                                 |
| \\      /  F ield         | OpenFOAM: The Open Source CFD Toolbox           |
|  \\    /   O peration     | Version:  2306                                  |
|   \\  /    A nd           | Website:  www.openfoam.com                      |
|    \\/     M anipulation  |                                                 |
\*---------------------------------------------------------------------------*/
FoamFile
{
    version     2.0;
    format      ascii;
    arch        "LSB;label=32;scalar=64";
    class       volScalarField;
    location    "0.85";
    object      p;
}
// * * * * * * * * * * * * * * * * * * * * * * * * * * * * * * * * * * * * * //

dimensions      [0 2 -2 0 0 0 0];

internalField   nonuniform List<scalar> 
111542
(
60.9894
62.3274
65.5107
70.6973
77.9495
87.4608
99.3685
113.676
129.863
146.476
160.944
169.279
167.515
154.615
133.799
110.845
89.65
71.5576
56.5843
44.52
34.9659
27.6047
22.0515
17.8063
14.5606
12.0632
10.0464
8.48102
7.31819
6.4303
5.73312
5.1687
4.74729
4.39612
4.06116
3.69832
3.25226
2.71635
1.98839
0.975567
59.8581
61.155
64.3035
69.4252
76.664
86.3181
98.7369
114.145
132.345
152.232
171.074
183.351
181.552
164.581
138.455
111.862
88.8081
69.7625
54.3784
42.2508
32.9185
25.8644
20.5509
16.599
13.6113
11.2878
9.4647
8.05975
6.98598
6.15051
5.48814
4.9571
4.53081
4.167
3.8238
3.46134
3.03465
2.49715
1.77793
0.819785
57.6204
58.848
61.8494
66.7812
73.8984
83.6931
96.8551
114.166
136.254
162.918
190.762
211.134
210.015
183.718
147.309
114.551
87.9948
67.0328
50.833
38.5658
29.5087
23.1183
18.4297
14.896
11.9979
9.64778
7.87455
6.58461
5.63782
4.93062
4.39937
3.99942
3.69306
3.44418
3.21563
2.96836
2.65651
2.22206
1.59177
0.692235
54.338
55.4353
58.1352
62.6419
69.3245
78.8947
92.4827
111.763
139.112
177.718
212.195
253.646
257.755
215.653
163.2
123.495
91.5469
67.334
49.5971
36.6965
23.6807
17.8731
15.2016
13.4777
11.3194
9.18106
7.49454
6.23632
5.26861
4.50945
3.91788
3.45959
3.10175
2.81133
2.55788
2.30787
2.01551
1.61713
1.01865
0.105691
50.1341
51.0184
53.2107
56.934
62.6152
71.0894
83.7909
103.131
133.121
177.605
253.85
338.492
359.517
249.453
165.072
118.675
81.1727
55.7253
38.8879
28.1471
21.6197
8.38048
6.68873
6.46415
5.478
4.50126
3.82921
3.35128
2.97378
2.67454
2.44668
2.27593
2.14743
2.04398
1.95099
1.85067
1.70995
1.47188
1.01375
0.0336813
45.2208
45.8024
47.258
49.7739
53.7197
59.8283
69.4324
84.997
111.311
165.954
259.354
452.818
612.436
235.107
163.536
109.826
65.3405
40.1517
25.2169
16.4691
15.2462
15.0772
13.3853
8.2031
4.80464
3.19754
2.342
1.74641
1.31044
1.01487
0.82721
0.712137
0.645264
0.610149
0.59539
0.590311
0.580549
0.553293
0.511434
0.567475
39.908
40.112
40.6424
41.5861
43.1231
45.5982
49.6104
56.1767
67.0652
106.803
183.321
416.171
1940.83
-438.029
193.803
75.7585
30.9188
16.0731
7.87882
-1.54744
-3.81599
14.712
14.693
9.39013
6.05729
4.66706
3.94346
3.36309
2.87873
2.50974
2.23969
2.04045
1.89323
1.78423
1.70383
1.64332
1.58707
1.52643
1.45975
1.44225
34.6003
34.3915
33.9129
33.1234
31.9569
30.2527
27.6281
23.1731
14.5706
17.3338
1.60294
-156.364
-996.18
-1046.61
-312.762
-101.842
-46.1334
-25.4988
-16.3049
-10.1999
-4.00772
-8.76635
-6.43162
-4.5515
-3.63637
-2.74722
-1.87922
-1.18094
-0.641399
-0.202038
0.16901
0.483524
0.749238
0.971627
1.15381
1.29395
1.37616
1.369
1.20531
0.756014
29.6845
29.1205
27.6932
25.2791
21.6208
16.1766
7.94774
-4.92755
-26.0329
-48.8986
-121.934
-265.785
-476.081
-505.824
-319.997
-174.966
-100.108
-60.7058
-38.6866
-24.8074
-15.0442
-8.5406
-4.38171
-1.41683
0.309575
1.34815
2.06425
2.55374
2.86305
3.04853
3.15524
3.20966
3.22577
3.20969
3.16019
3.06883
2.91006
2.63416
2.14519
1.25323
25.637
24.7479
22.5435
18.8283
13.2351
5.05528
-6.89406
-24.5558
-51.184
-92.3653
-149.995
-222.562
-287.784
-295.78
-238.008
-164.767
-109.372
-73.8404
-50.8409
-34.9385
-23.7109
-16.2982
-11.3563
-7.84022
-5.36362
-3.61017
-2.29668
-1.27573
-0.478497
0.146741
0.643627
1.04242
1.36019
1.60453
1.77325
1.85823
1.8352
1.66072
1.2737
0.626109
22.746
21.633
18.8925
14.3018
7.45366
-2.35991
-16.2211
-35.5966
-62.3267
-98.2494
-143.306
-192.297
-230.577
-237.386
-206.683
-157.665
-113.155
-80.7144
-57.9878
-41.4692
-29.2237
-20.296
-13.7911
-9.02391
-5.5412
-3.01166
-1.1623
0.200344
1.20146
1.92991
2.45423
2.82478
3.07474
3.22207
3.26473
3.21213
3.03967
2.69984
2.12008
1.17243
21.2426
20.0271
17.0014
11.9957
4.52941
-6.01211
-20.6246
-40.4266
-66.5483
-99.3175
-137.212
-174.829
-202.255
-207.984
-187.945
-151.75
-114.185
-83.7494
-61.1869
-44.3906
-31.7307
-22.2988
-15.4055
-10.4057
-6.82128
-4.23668
-2.35562
-0.971403
0.0561771
0.822522
1.39546
1.82258
2.136
2.35746
2.43103
2.43039
2.31251
2.02602
1.52081
0.746003
60.4568
61.7473
64.868
69.907
76.9416
86.1561
97.7179
111.585
127.236
143.305
157.297
165.293
163.368
150.681
130.355
107.967
87.361
69.7718
55.2192
43.4633
34.1749
26.9849
21.5118
17.3739
14.2155
11.7508
9.80088
8.29012
7.14515
6.27246
5.59737
5.0692
4.65577
4.31127
3.99161
3.65514
3.25631
2.74596
2.04316
1.04525
59.3349
60.5988
63.6648
68.6395
75.6625
85.0229
97.0616
111.988
129.617
148.899
167.171
179.161
177.041
160.341
134.838
108.944
86.5268
68.0137
53.056
41.2473
32.1328
25.1873
19.9489
16.1079
13.2282
10.9794
9.21315
7.84885
6.80097
5.98632
5.34446
4.83453
4.4244
4.07745
3.75701
3.42457
3.03668
2.53804
1.85528
0.905954
57.1221
58.3195
61.2358
66.0212
72.9207
82.4101
95.1585
111.928
133.344
159.24
186.302
205.992
204.981
179.186
143.599
111.669
85.8016
65.3922
49.613
37.6326
28.7004
22.3093
17.6753
14.2634
11.4989
9.27217
7.60666
6.40589
5.52764
4.86993
4.37331
3.9969
3.70636
3.46941
3.25452
3.0266
2.74318
2.34367
1.74147
0.815767
53.8788
54.9477
57.5665
61.9315
68.3998
77.6615
90.8163
109.503
136.074
173.718
208.676
249.449
253.412
211.645
160.146
121.215
89.8308
66.0339
48.5897
35.8291
22.1284
15.9779
13.9707
12.72
10.7356
8.68333
7.07496
5.88789
4.97894
4.26809
3.71804
3.29627
2.97238
2.71569
2.49889
2.29207
2.05414
1.71947
1.17723
0.241596
49.7284
50.5867
52.7071
56.3032
61.7894
69.9782
82.2713
101.039
130.255
174.766
250.085
333.789
354.316
244.81
161.925
116.877
79.8553
54.6834
37.975
27.0219
18.9211
2.93231
3.09297
4.48682
4.3049
3.77224
3.39555
3.10923
2.84002
2.5905
2.37548
2.196
2.04967
1.92877
1.82624
1.73207
1.62276
1.44422
1.0649
0.135725
44.8822
45.4414
46.8397
49.2543
53.0448
58.9274
68.2112
83.3334
109.057
163.631
256.744
448.866
607.402
228.423
155.741
109.883
64.7751
39.4362
24.5482
15.5332
6.43416
14.4889
12.6745
7.63631
4.3695
2.82994
2.02101
1.46106
1.04814
0.766321
0.589072
0.484917
0.433105
0.419031
0.434532
0.47356
0.531793
0.607383
0.710222
0.921056
39.6343
39.8326
40.3262
41.2029
42.6421
44.983
48.8194
55.1742
65.8501
105.518
181.926
414.829
1927.01
161.98
81.6937
32.7922
16.4658
7.21656
-4.64175
-13.3154
13.8927
13.9201
8.28549
4.85596
3.50713
2.85278
2.34875
1.94017
1.63755
1.42131
1.26474
1.15331
1.07741
1.0334
1.01955
1.03363
1.07721
1.15603
1.28444
34.3955
34.198
33.7049
32.8881
31.6899
29.9576
27.3255
22.9267
14.5337
17.3505
1.9944
-154.146
-981.676
-1026.18
-306.923
-99.5474
-44.898
-24.9752
-16.2746
-10.2313
-0.402479
-6.30864
-5.14177
-4.16754
-3.58249
-2.82155
-2.04381
-1.40873
-0.904897
-0.483307
-0.119121
0.196791
0.471529
0.709721
0.916679
1.09421
1.23353
1.30731
1.24415
0.865471
29.5734
29.0068
27.5838
25.1823
21.5544
16.1777
8.08844
-4.51726
-25.1316
-47.8905
-119.665
-261.768
-469.518
-495.906
-314.165
-171.3
-97.8352
-59.4864
-38.1087
-24.4818
-14.3029
-7.91429
-4.38866
-1.83164
-0.206702
0.816179
1.52116
2.00505
2.31772
2.51132
2.62745
2.69178
2.7187
2.71567
2.68437
2.62052
2.50388
2.2891
1.88388
1.10483
25.5816
24.6998
22.5215
18.8498
13.3332
5.29076
-6.42286
-23.6911
-49.6834
-89.8896
-146.188
-217.104
-280.995
-288.328
-231.544
-160.085
-106.372
-72.0968
-49.915
-34.5157
-23.5717
-16.2658
-11.4723
-8.06089
-5.6379
-3.91561
-2.62413
-1.61849
-0.831369
-0.212819
0.280202
0.677872
0.997752
1.24811
1.4293
1.53486
1.54339
1.41411
1.08898
0.523223
22.7377
21.6391
18.9335
14.4025
7.6644
-1.97274
-15.5536
-34.5003
-60.596
-95.6367
-139.558
-187.263
-224.489
-231.075
-200.992
-153.318
-110.185
-78.8518
-56.901
-40.9042
-29.0058
-20.297
-13.9243
-9.26419
-5.86028
-3.37947
-1.55723
-0.209472
0.782937
1.50589
2.02678
2.39543
2.64495
2.79455
2.85
2.81211
2.66155
2.3569
1.8331
0.98398
21.2634
20.0533
17.0799
12.1248
4.79899
-5.5551
-19.872
-39.2463
-64.7278
-96.7026
-133.631
-170.235
-196.881
-202.46
-182.954
-147.671
-111.214
-81.7949
-59.9872
-43.7238
-31.4265
-22.2396
-15.5074
-10.6313
-7.10964
-4.55939
-2.69905
-1.32718
-0.307065
0.45446
1.02401
1.44845
1.75826
1.96886
2.07638
2.08933
1.98622
1.72778
1.27152
0.591565
59.4385
60.6609
63.6157
68.3673
74.9859
83.6395
94.48
107.447
122.041
136.99
149.911
157.137
155.027
142.789
123.42
102.2
82.729
66.1215
52.3799
41.2673
32.4783
25.6365
20.3824
16.3998
13.3591
10.9802
9.10209
7.64027
6.52164
5.66855
5.01381
4.50744
4.11038
3.78586
3.49648
3.20288
2.86168
2.41991
1.80921
0.944744
58.3395
59.5376
62.434
67.1197
73.7206
82.5015
93.7739
107.723
124.171
142.138
159.142
170.067
167.87
151.848
127.611
103.113
81.9328
64.4462
50.3203
39.1722
30.5769
23.9429
18.8997
15.2132
12.4544
10.2788
8.54803
7.19604
6.15011
5.33741
4.70176
4.20254
3.80586
3.47911
3.18982
2.90275
2.5769
2.15888
1.58112
0.775382
56.1746
57.308
60.0554
64.5517
71.0213
79.9036
91.8196
107.482
127.497
151.742
177.134
195.685
194.36
169.693
135.986
105.796
81.3102
62.0031
47.0956
35.8382
27.65
21.5193
16.8992
13.533
10.8539
8.67979
7.02038
5.80252
4.90412
4.23266
3.73181
3.36102
3.08493
2.87292
2.69581
2.52303
2.31573
2.01685
1.5376
0.745882
53.0059
54.014
56.4713
60.5565
66.6
75.2444
87.5199
104.978
129.884
165.371
199.923
239.022
242.657
202.352
153.207
115.956
85.7718
62.9662
46.2826
34.1365
21.481
16.2226
13.8727
12.1909
9.92357
7.6823
5.94081
4.66339
3.70021
2.96464
2.41147
2.00322
1.70627
1.49047
1.33224
1.20818
1.08588
0.908045
0.56709
-0.125618
48.9588
49.7599
51.7363
55.0805
60.1781
67.7913
79.2451
96.8012
124.312
167.778
240.481
321.653
341.733
235.787
157.378
113.228
76.7586
52.1855
35.9339
25.3786
18.5701
5.07325
5.10143
5.71811
4.73645
3.54973
2.71752
2.13268
1.67714
1.32207
1.05785
0.869068
0.742778
0.664326
0.627399
0.627389
0.656177
0.678646
0.575091
-0.0682603
44.2508
44.7509
46.0339
48.2473
51.7268
57.1496
65.7658
79.9249
104.291
157.71
249.111
437.762
593.942
223.332
160.762
109.172
63.9757
38.4857
23.4139
14.189
10.8841
7.14199
6.70816
2.76389
-0.149918
-1.5806
-2.2734
-2.68926
-2.95708
-3.10567
-3.16308
-3.16165
-3.10719
-3.00973
-2.86664
-2.66738
-2.38893
-1.98958
-1.37626
-0.263827
39.1077
39.2983
39.7179
40.462
41.7048
43.7704
47.2311
53.108
63.2549
102.253
177.939
409.293
1910.6
204.338
81.6606
32.0509
15.4662
6.94577
-2.37659
-5.45611
13.9844
12.0302
6.11512
2.8148
1.46661
0.733735
0.148334
-0.329546
-0.689501
-0.946911
-1.12404
-1.23421
-1.27785
-1.25418
-1.15376
-0.955678
-0.623929
-0.0813856
0.830472
34.0282
33.8274
33.3043
32.436
31.1744
29.3799
26.7218
22.4169
14.4349
17.4383
3.28148
-148.18
-963.529
-1012.01
-296.529
-93.2757
-41.853
-23.9799
-16.1795
-10.4753
-3.9229
-8.59349
-8.0913
-7.09129
-6.04951
-4.88673
-3.83972
-3.01091
-2.36101
-1.83462
-1.39656
-1.02659
-0.709685
-0.431564
-0.172371
0.0820488
0.343104
0.603788
0.809203
0.741891
29.3506
28.7893
27.3793
25.0045
21.4378
16.1944
8.37972
-3.68517
-23.274
-45.2543
-113.88
-250.951
-452.232
-477.65
-300.459
-162.362
-92.7072
-56.8661
-36.9371
-24.1493
-14.8406
-9.56043
-6.0406
-3.30849
-1.50932
-0.368804
0.406857
0.9372
1.28142
1.49441
1.6239
1.70104
1.74543
1.7686
1.78138
1.78613
1.7729
1.70679
1.499
0.941538
25.4776
24.6137
22.4822
18.898
13.5378
5.76908
-5.47433
-21.9495
-46.6344
-84.743
-138.115
-205.435
-266.279
-273.14
-218.894
-151.143
-100.738
-68.8265
-48.1617
-33.7553
-23.559
-16.9399
-12.2143
-8.78274
-6.38853
-4.68581
-3.38043
-2.34085
-1.51463
-0.859092
-0.332371
0.0958056
0.445399
0.725221
0.943386
1.09806
1.17474
1.13895
0.931098
0.475795
22.7221
21.6482
19.0127
14.6096
8.08888
-1.19519
-14.213
-32.2896
-57.0893
-90.2993
-131.865
-176.991
-212.214
-218.421
-189.884
-144.855
-104.382
-75.1304
-54.6288
-39.6342
-28.458
-20.2658
-14.1521
-9.63949
-6.34789
-3.94228
-2.15762
-0.822805
0.169117
0.897713
1.42801
1.8091
2.07504
2.24626
2.33433
2.33938
2.24688
2.02174
1.60115
0.869142
21.2913
20.1119
17.2205
12.4096
5.33106
-4.63619
-18.3542
-36.8412
-61.0611
-91.3717
-126.299
-160.866
-186.002
-191.271
-172.876
-139.652
-105.439
-77.9213
-57.5139
-42.2467
-30.6631
-21.9789
-15.5663
-10.8738
-7.45887
-4.978
-3.16037
-1.80859
-0.792824
-0.026191
0.553801
0.992202
1.31905
1.55059
1.693
1.74329
1.6868
1.49252
1.11877
0.52398
58.0094
59.1332
61.8408
66.181
72.2047
80.0491
89.8315
101.471
114.494
127.733
139.016
145.039
142.656
131.113
113.209
93.7587
75.9691
60.8067
48.2551
38.0891
30.0204
23.6736
18.7106
14.8934
11.9837
9.73786
7.98807
6.63564
5.60229
4.81392
4.20866
3.74086
3.37476
3.07962
2.82451
2.57751
2.30204
1.95252
1.47127
0.789721
56.9425
58.0429
60.6918
64.9618
70.9552
78.8951
89.0416
101.537
116.198
132.128
147.109
156.313
153.942
139.003
116.752
94.4062
75.109
59.1733
46.2979
36.1309
28.2637
22.0138
17.1336
13.5652
10.9523
8.9319
7.33705
6.09503
5.1374
4.39542
3.81645
3.36313
3.00615
2.71803
2.47321
2.24428
1.99811
1.68959
1.2586
0.640228
54.8444
55.8818
58.384
62.463
68.3098
76.3046
86.9851
100.971
118.794
140.349
162.866
179.331
177.436
154.624
123.953
96.548
74.2788
56.7308
43.2012
33.0285
25.728
19.6584
14.7224
11.3643
9.00205
7.18545
5.79655
4.76249
3.98861
3.39989
2.95157
2.61351
2.36086
2.17031
2.02434
1.90254
1.77827
1.60427
1.29445
0.68659
51.7794
52.6964
54.9188
58.5985
64.0224
71.7539
82.701
98.2443
120.435
152.184
185.206
220.993
223.805
186.117
141.065
106.825
78.8229
57.7795
42.4455
31.3392
19.1674
13.6459
10.6493
8.86449
7.03964
5.33949
4.022
3.04576
2.29706
1.71107
1.25759
0.918051
0.670455
0.494343
0.38322
0.328609
0.318574
0.316678
0.227477
-0.194208
47.8726
48.5936
50.3599
53.3364
57.8618
64.6113
74.7677
90.3666
114.948
155.888
223.151
298.965
317.447
217.542
146.649
105.268
70.2858
47.0861
31.8876
21.9675
14.8896
-2.93838
-0.81634
1.66001
1.77051
1.23044
0.769549
0.382371
0.0222279
-0.298183
-0.565035
-0.766584
-0.911328
-1.00235
-1.02885
-0.977455
-0.828049
-0.575426
-0.297862
-0.432032
43.3367
43.7761
44.8913
46.8086
49.8253
54.5469
62.0971
74.6251
96.4834
147.019
234.326
415.554
565.063
205.774
158.39
105.542
59.1956
33.7475
19.1258
10.0771
0.770495
-6.26682
-2.35818
-2.09769
-2.99012
-3.53581
-3.80724
-4.03333
-4.24983
-4.42757
-4.55408
-4.64419
-4.68247
-4.6687
-4.58334
-4.39119
-4.02923
-3.38303
-2.24867
-0.293626
38.4009
38.5465
38.855
39.4056
40.3537
41.9875
44.8244
49.827
58.8187
95.9845
169.708
399.554
1871.69
224.291
80.2264
28.4666
11.4417
2.77694
-6.17432
-11.2571
14.8056
11.1855
4.16991
0.302739
-1.52634
-2.61433
-3.40486
-3.98412
-4.38618
-4.65333
-4.81471
-4.89833
-4.91224
-4.83393
-4.63533
-4.25545
-3.58456
-2.42681
-0.471051
33.5212
33.3063
32.738
31.7947
30.4345
28.5286
25.7875
21.5339
14.0268
17.1418
5.16704
-134.764
-918.273
-969.99
-275.056
-84.1173
-39.3243
-24.4642
-17.8153
-12.2637
-3.27089
-6.95048
-7.2493
-6.91805
-6.21591
-5.35612
-4.5615
-3.91206
-3.39074
-2.96481
-2.61042
-2.29928
-2.03943
-1.80529
-1.5627
-1.28283
-0.928507
-0.462835
0.105787
0.527198
29.0427
28.4868
27.0948
24.7583
21.2756
16.2145
8.77927
-2.5169
-20.5817
-41.0406
-104.246
-231.546
-420.291
-443.767
-275.981
-148.223
-85.4224
-53.5674
-35.7877
-24.2088
-15.6773
-11.2796
-7.09345
-3.96663
-2.27241
-1.39607
-0.847477
-0.478098
-0.243962
-0.102205
-0.012832
0.0499782
0.0961463
0.13947
0.195106
0.273215
0.378331
0.499629
0.573077
0.416669
25.3337
24.4957
22.4317
18.9762
13.8421
6.46589
-4.10096
-19.4188
-42.1437
-76.9664
-125.614
-186.959
-242.445
-248.604
-199.158
-137.794
-92.6076
-64.1514
-45.6548
-32.6907
-23.5579
-17.7288
-12.6842
-8.99521
-6.65958
-5.11101
-3.93317
-2.98632
-2.23027
-1.62741
-1.13821
-0.733887
-0.398066
-0.11935
0.114549
0.306234
0.449787
0.523095
0.475729
0.233579
22.6955
21.6613
19.128
14.9126
8.70584
-0.067859
-12.2711
-29.0742
-51.9472
-82.3799
-120.293
-161.335
-193.338
-198.963
-173.06
-132.376
-96.0104
-69.7814
-51.3278
-37.7553
-27.6126
-20.1342
-14.303
-9.90003
-6.72206
-4.44163
-2.76768
-1.52294
-0.603031
0.0695265
0.558573
0.912293
1.16356
1.33337
1.43602
1.47389
1.43698
1.29907
1.01071
0.494567
21.3308
20.1944
17.4225
12.8287
6.10553
-3.30154
-16.1579
-33.3538
-55.7234
-83.5457
-115.442
-146.889
-169.701
-174.494
-157.882
-127.933
-97.1384
-72.364
-53.9301
-40.0686
-29.502
-21.5302
-15.5427
-11.0492
-7.73913
-5.34438
-3.60426
-2.31651
-1.35139
-0.62464
-0.0755631
0.340345
0.652939
0.880123
1.03069
1.10343
1.08646
0.95639
0.681874
0.247785
56.2704
57.2707
59.6709
63.5014
68.7881
75.6249
84.0797
94.0382
105.041
116.043
125.16
129.57
126.773
116.166
100.244
83.1294
67.5131
54.1855
43.1204
34.1265
26.9709
21.3396
16.9042
13.424
10.7251
8.63047
6.99859
5.73789
4.77225
4.0332
3.46699
3.03295
2.69588
2.43299
2.21363
2.01533
1.80517
1.54847
1.19933
0.695783
55.2429
56.2201
58.5611
62.3161
67.5547
74.4434
83.1683
93.8001
106.121
119.314
131.529
138.331
135.553
122.126
102.647
83.2235
66.4278
52.5108
41.2301
32.3064
25.432
19.9979
15.6906
12.385
9.87388
7.91097
6.35688
5.15107
4.22624
3.514
2.96461
2.54124
2.21798
1.96526
1.7662
1.59575
1.43106
1.23747
0.968361
0.556024
53.2259
54.1421
56.3387
59.8993
64.9691
71.8457
80.9461
92.7367
107.59
125.332
143.55
156.599
153.891
133.826
107.502
84.0321
64.8845
49.7494
38.0476
29.327
23.461
18.4387
13.7771
10.3929
8.06217
6.32429
4.98496
3.97054
3.20851
2.63325
2.19822
1.87324
1.63806
1.46933
1.35547
1.28323
1.24073
1.19869
1.09061
0.735423
50.2864
51.0883
53.0176
56.1913
60.8366
67.4044
76.6184
89.5728
107.9
133.935
163.751
193.682
194.949
161.584
122.882
93.2283
68.7302
50.4545
37.1619
27.7393
18.9464
16.3872
11.3122
7.51133
4.91739
3.02674
1.68197
0.747052
0.0847337
-0.398176
-0.74966
-0.993237
-1.14731
-1.2342
-1.25172
-1.19195
-1.04361
-0.802399
-0.501145
-0.332182
46.5481
47.1706
48.6736
51.1883
54.9882
60.6201
69.0371
81.8848
102.053
138.303
195.379
260.445
274.903
186.228
127.876
91.0138
59.6384
39.4063
26.3408
18.26
15.2991
7.03751
5.16391
3.58818
1.88332
0.42246
-0.65339
-1.42643
-2.00366
-2.44721
-2.7866
-3.02431
-3.18156
-3.27631
-3.2899
-3.18333
-2.90552
-2.37327
-1.52842
-0.689248
42.2124
42.586
43.4904
45.0333
47.4575
51.2522
57.3246
67.4341
85.1847
129.85
207.947
371.668
507.121
171.601
151.496
92.8962
48.162
25.2508
12.7256
5.07416
-3.40436
-32.0331
-28.8502
-26.5325
-25.3438
-24.1157
-22.9504
-22.0132
-21.2601
-20.6059
-20.012
-19.479
-18.9682
-18.4363
-17.8485
-17.1419
-16.192
-14.7409
-12.2066
-7.10687
37.5502
37.6263
37.7943
38.1007
38.6668
39.7152
41.6544
45.2636
52.0778
84.9617
152.353
371.292
1793.6
266.272
68.5265
15.6861
-0.671552
-7.93737
-13.4533
-18.7538
-1.22018
-4.45402
-9.25296
-11.5648
-12.482
-12.9713
-13.3195
-13.5445
-13.6429
-13.6414
-13.58
-13.4285
-13.1939
-12.8578
-12.3602
-11.5864
-10.2958
-8.0196
-3.98653
32.9043
32.6679
32.0425
31.0038
29.5089
27.4359
24.5239
20.1916
13.0133
15.6137
5.70694
-117.993
-836.195
-866.195
-237.314
-75.3306
-40.2008
-28.6343
-22.8579
-17.4203
-11.6046
-20.8532
-17.5281
-13.8316
-11.5461
-9.9742
-8.80106
-7.94181
-7.31564
-6.84688
-6.48381
-6.18189
-5.92585
-5.6816
-5.40728
-5.05031
-4.53627
-3.74706
-2.54498
-0.959942
28.665
28.1177
26.7454
24.4533
21.0675
16.2171
9.22568
-1.14687
-17.3079
-35.5476
-90.6736
-201.734
-367.211
-385.616
-238.448
-129.52
-76.9111
-50.1521
-34.9434
-25.1273
-19.3357
-18.5012
-12.4192
-7.4243
-4.87161
-3.56334
-2.72577
-2.15303
-1.7806
-1.54459
-1.38966
-1.2818
-1.20122
-1.12033
-1.01781
-0.869792
-0.64833
-0.327877
0.0708357
0.326432
25.1551
24.3489
22.369
19.0706
14.2134
7.3183
-2.41241
-16.276
-36.4707
-66.875
-108.822
-161.24
-208.241
-213.521
-171.982
-120.475
-82.4932
-58.3844
-42.5085
-31.3424
-23.7259
-19.3596
-14.3727
-10.3444
-7.74005
-5.99433
-4.66212
-3.60107
-2.76782
-2.11709
-1.60264
-1.18864
-0.855201
-0.5782
-0.341347
-0.131873
0.0569286
0.218704
0.312078
0.215814
22.6597
21.6744
19.2684
15.285
9.4667
1.3265
-9.85897
-25.0552
-45.4533
-72.2254
-105.173
-140.454
-167.837
-172.668
-150.763
-116.408
-85.5586
-63.0885
-47.0854
-35.2188
-26.3666
-19.9047
-14.7217
-10.5666
-7.43914
-5.14453
-3.43572
-2.14886
-1.18601
-0.47347
0.0510791
0.435722
0.714418
0.912439
1.04664
1.1249
1.14439
1.0861
0.903108
0.486751
21.3713
20.2909
17.6667
13.3406
7.0564
-1.6539
-13.4292
-28.9967
-49.0066
-73.6051
-101.505
-128.763
-148.412
-152.562
-138.45
-113.015
-86.7232
-65.3853
-49.3413
-37.1687
-27.8415
-20.7878
-15.4337
-11.2805
-8.11331
-5.76318
-4.02151
-2.70983
-1.71119
-0.949339
-0.368091
0.0754183
0.411609
0.660911
0.83484
0.936651
0.959098
0.882752
0.674811
0.286056
54.3425
55.2043
57.2597
60.5194
64.9815
70.6902
77.654
85.7137
94.4134
102.823
109.381
111.95
108.643
99.1604
85.623
71.2667
58.179
46.9556
37.5534
29.8111
23.5461
18.5552
14.6367
11.587
9.21563
7.35395
5.88816
4.75226
3.87704
3.19955
2.67688
2.27908
1.95526
1.71545
1.50801
1.33805
1.16173
0.964694
0.719835
0.422844
53.3585
54.1979
56.1934
59.3716
63.7654
69.4749
76.597
85.108
94.7196
104.633
113.18
117.441
114.049
102.483
86.4395
70.5634
56.7589
45.193
35.6792
27.9794
21.8188
16.9833
13.2227
10.3521
8.14105
6.38668
4.97568
3.89907
3.07697
2.4308
1.92556
1.52739
1.2317
0.983134
0.803652
0.655065
0.53459
0.416938
0.290389
0.161241
51.431
52.2123
54.0661
57.0456
61.2441
66.8615
74.1658
83.4211
94.7579
107.821
120.686
128.775
125.046
108.488
87.6042
69.1636
54.0193
41.8079
32.1172
24.527
18.4939
14.1509
10.5934
7.93009
5.92088
4.38156
3.1771
2.24992
1.54702
1.02677
0.636439
0.34653
0.142525
0.00952244
-0.0701883
-0.0989288
-0.0763985
-0.00654985
0.0916212
0.1717
48.6298
49.3053
50.9053
53.5113
57.2804
62.5282
69.7452
79.6365
93.1828
111.582
136.021
156.886
155.88
129.087
98.6583
75.2208
55.7905
41.1588
30.2874
22.2499
11.3922
8.68917
5.66745
3.26981
1.24159
-0.411944
-1.61159
-2.46337
-3.06158
-3.49088
-3.79639
-3.99602
-4.10791
-4.152
-4.12071
-3.99267
-3.74522
-3.3275
-2.66057
-1.57352
45.0817
45.5912
46.7993
48.7953
51.7743
56.1237
62.4952
71.9847
86.4479
115.335
155.846
201.146
206.868
137.478
95.4976
67.6166
43.481
27.825
17.5384
11.134
9.46012
-2.37592
-3.50126
-4.83108
-6.09627
-7.22377
-8.14298
-8.71429
-9.02107
-9.20666
-9.31873
-9.3725
-9.35419
-9.26409
-9.11607
-8.83694
-8.35137
-7.5103
-6.0702
-3.68042
40.9799
41.2649
41.9327
43.0551
44.805
47.5192
51.8108
58.8404
70.9051
105.448
164.995
287.708
385.591
103.282
110.403
54.9344
19.0722
1.6261
-7.61349
-12.5809
-11.2204
-25.1063
-27.0035
-31.2058
-32.6484
-32.3864
-31.5813
-30.7717
-30.0194
-29.2539
-28.4746
-27.6802
-26.9059
-26.1334
-25.2872
-24.2966
-23.0114
-21.0803
-17.6869
-10.8277
36.5881
36.6025
36.6142
36.6458
36.7731
37.1315
37.9608
39.7101
43.2506
68.0628
119.637
299.95
1604.66
251.226
-18.5379
-60.3178
-68.2773
-69.2915
-67.398
-62.6372
-36.2598
-35.4257
-37.2979
-37.3169
-36.2923
-35.1358
-34.0934
-33.1171
-32.1565
-31.2109
-30.3069
-29.4085
-28.4678
-27.4917
-26.3806
-24.9737
-22.8914
-19.247
-11.7135
32.23
31.9575
31.267
30.1205
28.4692
26.19
23.0313
18.4801
11.404
12.3841
3.54127
-91.9842
-663.911
-659.096
-191.681
-77.5718
-51.5071
-41.3862
-35.5545
-29.971
-26.7504
-29.9641
-26.4829
-22.7162
-20.3438
-18.63
-17.3082
-16.2888
-15.4797
-14.8105
-14.235
-13.7252
-13.2699
-12.7922
-12.2809
-11.6819
-10.8924
-9.72323
-7.8206
-4.47084
28.2449
27.7053
26.3555
24.1123
20.8329
16.2086
9.69151
0.330037
-13.5648
-29.1538
-73.3085
-158.25
-282.007
-296.624
-188.264
-107.352
-67.2501
-45.9365
-33.351
-25.211
-22.7068
-18.2948
-14.8151
-11.7634
-9.82161
-8.52622
-7.54551
-6.77856
-6.183
-5.71656
-5.34087
-5.02788
-4.76292
-4.5129
-4.25363
-3.95541
-3.5736
-3.04547
-2.28795
-1.20846
24.9555
24.1882
22.2987
19.1754
14.6271
8.26721
-0.53155
-12.7537
-30.0063
-55.0915
-88.6508
-129.099
-164.175
-168.765
-138.372
-99.5814
-70.0684
-50.6902
-37.4824
-27.9374
-21.2721
-17.5865
-14.1833
-11.2726
-9.07963
-7.43651
-6.14654
-5.1128
-4.28603
-3.6225
-3.08373
-2.63891
-2.26947
-1.95077
-1.66569
-1.39911
-1.13976
-0.879521
-0.621324
-0.37649
22.6178
21.6871
19.4252
15.703
10.3212
2.89261
-7.14686
-20.5214
-38.0689
-60.5245
-87.4742
-115.627
-137.176
-140.973
-124.277
-97.8647
-73.4703
-55.1484
-41.7395
-31.5927
-23.8964
-18.268
-13.9546
-10.5329
-7.89224
-5.89587
-4.37917
-3.21732
-2.32609
-1.64373
-1.12056
-0.718637
-0.410024
-0.173117
0.00678099
0.137486
0.21756
0.235308
0.167647
-0.00734279
21.4129
20.3967
17.9397
13.9151
8.12494
0.199635
-10.3559
-24.0782
-41.3912
-62.2594
-85.4751
-107.758
-123.594
-126.944
-115.903
-95.8079
-74.7089
-57.1869
-43.7031
-33.2859
-25.1903
-19.0168
-14.3598
-10.7897
-8.05266
-5.97585
-4.40183
-3.19867
-2.27228
-1.55711
-1.00438
-0.57619
-0.245226
0.00677176
0.19078
0.310567
0.359716
0.322379
0.180847
-0.0550977
52.3614
53.078
54.7781
57.4512
61.0681
65.6256
71.0745
77.2151
83.6016
89.4299
93.473
94.2208
90.4652
82.2159
71.1453
59.5898
49.0469
39.931
32.1934
25.7189
20.3913
16.0953
12.7218
10.1471
8.16121
6.5856
5.33023
4.34798
3.58833
3.00103
2.54739
2.19758
1.92416
1.71058
1.53431
1.38037
1.2241
1.04335
0.811078
0.50203
51.423
52.1175
53.758
56.3443
59.8736
64.3824
69.8799
76.2523
83.1498
89.8201
94.9044
96.3671
92.2851
82.6598
70.1973
57.9692
47.2471
38.1068
30.424
24.0578
18.8385
14.634
11.392
9.03609
7.25811
5.84527
4.7169
3.83509
3.14671
2.60287
2.17201
1.83109
1.56405
1.35028
1.18102
1.04164
0.917815
0.788454
0.626518
0.397741
49.5889
50.2269
51.7301
54.1155
57.426
61.7657
67.2555
73.9606
81.772
90.1597
97.6163
100.892
95.7661
82.4344
67.0172
53.7594
42.7883
33.5532
25.8813
19.5864
14.4093
10.3748
7.92333
6.23045
4.76845
3.55893
2.64862
1.98944
1.51152
1.16336
0.910047
0.729895
0.608934
0.533011
0.49383
0.489646
0.518577
0.568616
0.603936
0.512922
46.9323
47.4701
48.7352
50.7642
53.6439
57.5564
62.7612
69.5779
78.3478
89.2863
100.507
107.815
100.571
79.7314
60.6795
47.101
36.2124
27.3995
20.2915
14.233
7.92483
1.75877
2.00744
2.54142
1.97912
1.09755
0.351343
-0.221373
-0.669169
-1.02375
-1.2967
-1.49383
-1.62165
-1.68887
-1.69123
-1.61285
-1.43544
-1.13275
-0.694097
-0.181062
43.5801
43.9683
44.8744
46.3476
48.4943
51.5458
55.8474
61.9151
70.4341
90.3761
111.059
130.571
123.365
81.6931
56.7702
42.5119
28.0059
17.6691
10.6073
5.42984
0.0871188
-14.0434
-11.1832
-8.18088
-6.84864
-6.18107
-5.72193
-5.36626
-5.10397
-4.92481
-4.80199
-4.70849
-4.62616
-4.53937
-4.41165
-4.19467
-3.82382
-3.19714
-2.21455
-0.949867
39.7207
39.9097
40.3351
41.0338
42.1018
43.7226
46.2025
50.0538
56.0893
77.8539
104.527
147.026
164.889
28.1761
20.7924
3.80518
-5.12911
-9.18307
-12.3568
-15.0236
-21.7475
-14.3697
-15.5425
-17.4259
-17.9599
-17.7928
-17.4163
-17.0065
-16.5882
-16.1558
-15.7171
-15.2657
-14.8281
-14.3975
-13.9108
-13.3035
-12.4616
-11.1501
-8.93536
-5.12131
35.6047
35.5566
35.4083
35.1627
34.8491
34.5116
34.2063
34.0053
33.9587
48.0571
59.4944
129.701
171.96
-690.656
-125.284
-85.5856
-61.6394
-57.7839
-55.0339
-53.0506
-68.0479
-40.6626
-38.45
-36.2336
-34.2084
-32.2395
-30.501
-29.0229
-27.7326
-26.573
-25.5188
-24.5562
-23.6642
-22.7836
-21.8792
-20.8835
-19.6768
-17.9723
-15.1432
-9.59293
31.5326
31.2331
30.4774
29.2239
27.4211
24.9382
21.5177
16.6759
9.46815
7.8968
-13.9211
-81.3821
-305.641
-259.576
-107.055
-56.9004
-34.9952
-25.8861
-21.1602
-17.1362
-9.24746
5.88664
2.19039
-1.77453
-3.44943
-4.23626
-4.74216
-5.08396
-5.29407
-5.40758
-5.45654
-5.46802
-5.43854
-5.34453
-5.17159
-4.89612
-4.45103
-3.71189
-2.52085
-0.931809
27.8182
27.2836
25.9592
23.7727
20.6106
16.2213
10.165
1.68347
-10.6383
-29.69
-53.5957
-107.882
-177.863
-189.163
-129.405
-80.4245
-52.9127
-36.7908
-26.8114
-19.5634
-9.92111
-1.3943
-2.64857
-4.15345
-4.1476
-3.65139
-3.16684
-2.75293
-2.39923
-2.10456
-1.86558
-1.67206
-1.51527
-1.38064
-1.23639
-1.06013
-0.826848
-0.505046
-0.109177
0.159707
24.7519
24.0212
22.2318
19.2954
15.0709
9.26463
1.41628
-9.16036
-23.4549
-42.7433
-67.5566
-95.3984
-118.325
-122.054
-103.505
-77.7676
-56.65
-41.8276
-31.2182
-22.9811
-15.9893
-11.2731
-8.66221
-6.76041
-5.02789
-3.58982
-2.50098
-1.68797
-1.07291
-0.605337
-0.249938
0.021132
0.226147
0.384844
0.517921
0.635165
0.738815
0.81596
0.807806
0.528866
22.5764
21.7065
19.5944
16.1474
11.2222
4.53118
-4.32998
-15.842
-30.4747
-48.4448
-69.0766
-89.9109
-105.298
-108.331
-97.2779
-78.8145
-60.8878
-46.6618
-35.8124
-27.2864
-20.4414
-15.133
-11.0713
-8.07136
-5.80102
-4.05278
-2.71296
-1.68812
-0.901881
-0.298491
0.162185
0.510865
0.770704
0.959823
1.0908
1.16908
1.18844
1.12525
0.925351
0.474399
21.4559
20.5094
18.2297
14.5233
9.25071
2.13973
-7.16024
-18.9903
-33.5424
-50.5823
-68.9761
-86.1742
-98.1329
-100.763
-92.9231
-78.2335
-62.2772
-48.5166
-37.5512
-28.8383
-21.8647
-16.364
-12.1328
-8.93494
-6.4863
-4.57769
-3.08983
-1.93772
-1.04912
-0.365459
0.15795
0.554964
0.851154
1.06429
1.2047
1.27547
1.26723
1.15604
0.896398
0.410095
50.4631
51.0387
52.3978
54.5156
57.3356
60.8165
64.8651
69.2603
73.5889
77.19
79.1611
78.5209
74.6187
67.6694
58.8925
49.8521
41.5517
34.2892
28.0448
22.7584
18.3733
14.8274
12.0418
9.89091
8.19395
6.81568
5.69508
4.79819
4.08848
3.52715
3.08173
2.72646
2.4393
2.20107
1.99348
1.79833
1.59273
1.34947
1.03606
0.615868
49.5693
50.1234
51.4233
53.4537
56.1705
59.5636
63.5735
68.0265
72.5543
76.501
78.8605
78.3894
74.1542
66.4609
57.0714
47.8693
39.6767
32.5588
26.463
21.3461
17.1415
13.7889
11.2362
9.30831
7.77527
6.51464
5.48488
4.6542
3.9848
3.44161
2.99841
2.63539
2.33621
2.08512
1.86782
1.67052
1.47378
1.25093
0.964276
0.566442
47.8258
48.3261
49.4925
51.3222
53.8072
56.9742
60.8305
65.2987
70.1189
74.6853
77.8059
77.6394
72.4363
62.8513
52.2767
43.1068
35.368
28.5904
22.7602
17.9098
13.9899
11.0444
9.13425
7.64387
6.26916
5.07868
4.14063
3.42543
2.8767
2.45182
2.12341
1.87109
1.67897
1.53338
1.42329
1.33985
1.26949
1.18622
1.03582
0.70056
45.309
45.717
46.6618
48.1516
50.2154
52.9223
56.3566
60.5655
65.4738
70.6623