/*--------------------------------*- C++ -*----------------------------------*\
| =========                 |                                                 |
| \\      /  F ield         | OpenFOAM: The Open Source CFD Toolbox           |
|  \\    /   O peration     | Version:  2306                                  |
|   \\  /    A nd           | Website:  www.openfoam.com                      |
|    \\/     M anipulation  |                                                 |
\*---------------------------------------------------------------------------*/
FoamFile
{
    version     2.0;
    format      ascii;
    arch        "LSB;label=32;scalar=64";
    class       surfaceScalarField;
    location    "0.85";
    object      phi;
}
// * * * * * * * * * * * * * * * * * * * * * * * * * * * * * * * * * * * * * //

dimensions      [0 3 -1 0 0 0 0];

oriented        oriented;

internalField   nonuniform List<scalar> 
338621
(
24.9948
0.00250473
0.00136954
24.9869
0.00508601
0.00285958
24.9744
0.00794098
0.00457125
24.9568
0.010949
0.00663014
24.9333
0.0142287
0.00933186
24.9003
0.0201937
0.0128265
24.8534
0.0296282
0.0172094
24.7904
0.0401412
0.0227712
24.7287
0.0318137
0.0297241
24.6861
0.00445587
0.037965
24.6585
-0.0200801
0.0473342
24.5853
0.015361
0.0574033
24.6142
-0.0972778
0.0679024
24.7442
-0.20838
0.0778472
24.7851
-0.127816
0.0865695
24.8164
-0.125147
0.0936175
24.8444
-0.127077
0.0989436
24.8674
-0.125945
0.102984
24.887
-0.1255
0.105864
24.9142
-0.135085
0.107965
24.9448
-0.139933
0.109316
24.9686
-0.134085
0.110352
24.9872
-0.129718
0.1112
25.0025
-0.127067
0.111774
25.0154
-0.125173
0.112285
25.0261
-0.123478
0.112806
25.0351
-0.122353
0.113304
25.0426
-0.121271
0.113788
25.0487
-0.1204
0.114352
25.0537
-0.119997
0.114956
25.058
-0.119796
0.115555
25.0616
-0.119787
0.116093
25.0649
-0.119866
0.116643
25.0677
-0.120007
0.117149
25.0704
-0.120198
0.117535
25.0733
-0.120723
0.117806
25.0765
-0.121066
0.1179
25.08
-0.121407
0.117883
25.0841
-0.121793
0.117714
-0.122499
0.117157
24.9948
0.0049762
0.00134299
24.9868
0.0102947
0.00276749
24.9739
0.0163965
0.00445022
24.9563
0.0221416
0.00647904
24.9327
0.02867
0.0091443
24.9029
0.0374584
0.0125182
24.8671
0.0485035
0.0169363
24.8213
0.0632391
0.0225708
24.757
0.0663269
0.029678
24.6829
0.0400728
0.0382788
24.6409
-0.026708
0.0483618
24.6285
-0.0317429
0.0590871
24.6674
-0.207728
0.0710763
24.7508
-0.374363
0.0821737
24.8298
-0.298662
0.0915548
24.8968
-0.291232
0.0989439
24.9481
-0.282898
0.104469
24.9898
-0.276231
0.108564
25.0349
-0.28207
0.111533
25.0694
-0.283143
0.113594
25.0906
-0.276161
0.115088
25.1062
-0.265811
0.116185
25.1172
-0.257879
0.11711
25.1261
-0.253609
0.11771
25.1328
-0.250011
0.118157
25.1379
-0.247123
0.118531
25.1411
-0.244515
0.118947
25.1435
-0.243018
0.119379
25.1453
-0.242057
0.11987
25.1462
-0.241289
0.120405
25.1466
-0.241145
0.120956
25.1463
-0.241056
0.121494
25.1462
-0.2417
0.122009
25.1459
-0.24223
0.122459
25.1458
-0.242866
0.122804
25.1459
-0.243836
0.123063
25.1463
-0.244628
0.123124
25.1473
-0.245478
0.123087
25.1492
-0.246613
0.122857
-0.247188
0.1223
24.9951
0.00709113
0.00127663
24.9873
0.0155709
0.00262573
24.9751
0.0244213
0.00418709
24.9568
0.0342155
0.00618479
24.9322
0.0445528
0.00874441
24.9008
0.0568294
0.0120544
24.8607
0.0720534
0.016497
24.8115
0.0901099
0.0222422
24.7428
0.105199
0.0297365
24.6455
0.0980813
0.0392305
24.5701
0.0051278
0.0507334
-0.006371
0.00496486
-0.00594939
24.6681
-0.0388202
0.0641896
-0.0584621
-0.0385416
-0.0584829
24.5609
-0.0106753
0.0769083
-0.0946777
0.0212951
-0.0937141
24.7323
-0.18094
0.0893347
-0.122342
-0.211302
-0.120927
24.8235
-0.127045
0.0989933
-0.119558
-0.125095
-0.117325
24.8824
-0.116157
0.106355
-0.114332
-0.113723
-0.11231
24.9352
-0.112702
0.111829
-0.113082
-0.110902
-0.110686
25.0004
-0.115691
0.115879
-0.114772
-0.11379
-0.112878
25.0432
-0.112501
0.118829
-0.111189
-0.110632
-0.109367
25.0693
-0.108983
0.120856
-0.107985
-0.107063
-0.106003
25.0885
-0.417772
0.122442
25.1042
-0.405097
0.123628
25.1147
-0.392892
0.124521
25.1229
-0.386895
0.125099
25.1294
-0.381956
0.125474
25.1339
-0.37736
0.125676
25.1367
-0.373062
0.125781
25.1385
-0.370679
0.125859
25.1388
-0.368345
0.125954
25.1389
-0.36747
0.126091
25.1382
-0.366685
0.126265
25.1373
-0.366631
0.126463
25.136
-0.366954
0.126611
25.1347
-0.367775
0.126819
25.1332
-0.368271
0.12689
25.1319
-0.369406
0.126915
25.1311
-0.37066
0.126764
25.131
-0.371813
0.126517
25.1312
-0.372968
0.126098
-0.373999
0.125444
24.9955
0.00945463
0.00117372
24.9886
0.0200884
0.00241223
24.9766
0.0325654
0.00382338
24.9595
0.0455807
0.00570377
24.9348
0.0612407
0.00808223
24.9002
0.0801649
0.0112523
24.8545
0.102125
0.0155584
24.7964
0.126882
0.0213085
24.7301
0.142388
0.029085
6.1416
0.0365384
0.0394351
0.0536692
0.0375799
0.0533849
6.16374
6.14059
6.16165
6.12418
0.016803
0.005731
-6.11128
6.09941
-0.0344342
0.00746489
-6.10354
6.12524
-0.0416575
0.00925341
-6.11751
6.14434
-0.218921
0.0111226
-6.16277
6.17665
-0.1535
0.0125606
-6.18952
6.19982
-0.139997
0.0135392
-6.21083
6.22486
-0.141052
0.014328
-6.23664
6.24369
-0.137671
0.014941
-6.24943
6.25457
-0.133014
0.0153746
-6.259
6.26304
-0.128734
0.0157183
25.0967
-0.142204
0.130507
-0.143276
-0.140375
-0.142509
-6.26672
-6.2712
-6.2673
-6.2714
25.1064
-0.547684
0.132838
25.1125
-0.531788
0.132814
25.1181
-0.524856
0.132403
25.1209
-0.517061
0.132231
25.1214
-0.509979
0.132129
25.1209
-0.504553
0.132021
25.1186
-0.500285
0.13192
25.115
-0.496552
0.131835
25.1103
-0.494522
0.131766
25.1049
-0.493048
0.131692
25.0989
-0.492175
0.131591
25.0922
-0.491666
0.131395
25.0854
-0.492161
0.131236
25.0785
-0.492302
0.130892
25.0715
-0.49283
0.130472
25.0646
-0.493689
0.129853
25.0582
-0.494406
0.129059
25.0531
-0.496023
0.128103
-0.496517
0.126936
24.9972
0.0101031
0.00103413
24.9911
0.0240378
0.00212274
24.9812
0.0391255
0.00335502
24.9656
0.0561709
0.00501542
24.9426
0.0771459
0.00712061
24.909
0.103772
0.00994668
24.859
0.138362
0.0137932
24.7847
0.181986
0.0191236
6.17113
0.231082
0.0264137
6.16386
6.17075
6.16382
6.15513
0.0485893
0.00394661
6.13011
0.0054963
-6.15779
0.0199009
0.0116995
0.0114662
0.020112
-0.0409917
-6.07771
6.04407
0.00737641
-0.00243568
0.00395852
0.00347085
-0.00214822
0.0234014
-6.04418
6.06293
0.00950006
0.0292677
-0.0401077
-0.0404105
-0.0189486
0.0419213
-6.11549
6.14055
0.0120182
-0.0511139
-0.0660166
-0.103975
-0.0515853
0.235592
-6.17231
6.1834
0.0135899
-0.0491819
-0.0532977
-0.0524776
-0.0497479
0.180021
-6.19422
6.20698
0.0144755
-0.0496131
-0.0489843
-0.0487121
-0.0498471
0.169937
-6.22008
6.23158
0.0152218
-0.0480989
-0.0481277
-0.0479081
-0.0483363
0.16577
-6.24101
6.24811
0.0157961
-0.0456826
-0.0456828
-0.0454571
-0.0459218
0.159858
-6.25439
6.2589
0.0162136
-0.0433795
-0.0436171
-0.0434363
-0.0435638
0.153272
-6.26296
6.2651
0.0165855
-0.0414318
-0.0418022
-0.0416957
-0.0415312
0.147735
-6.26822
6.2702
-0.161486
0.0172925
25.0446
-0.656857
0.133801
-6.27025
-6.26356
-6.27111
-6.26429
25.0254
-0.645007
0.132405
25.0043
-0.632762
0.12897
24.9825
-0.620865
0.125627
24.961
-0.61095
0.122482
24.9393
-0.602446
0.119506
24.9174
-0.595112
0.116733
24.8959
-0.589172
0.114206
24.8738
-0.584407
0.111928
24.8518
-0.580954
0.109895
24.8301
-0.578576
0.10808
24.809
-0.576922
0.106416
24.7879
-0.57606
0.104978
24.7678
-0.575818
0.103596
24.7486
-0.575891
0.102263
24.7305
-0.576461
0.100884
24.7142
-0.577453
0.0993787
24.6998
-0.579328
0.0977102
-0.582802
0.0957818
24.9998
0.00873022
0.000860576
24.9964
0.0256906
0.00176121
24.9888
0.0439715
0.0027885
24.9769
0.063934
0.00409827
24.9592
0.0890535
0.00582327
24.932
0.122902
0.00808983
24.8887
0.170541
0.0111227
24.816
0.239257
0.0153625
6.17046
0.345179
0.0210906
6.17
6.17044
6.16983
-0.0645428
6.14483
0.0870079
0.00315601
-0.0194259
-1.52754
1.52241
0.0239646
0.000592528
-0.0190464
-1.50436
1.49236
0.0303101
0.000734133
-1.46945
0.0523757
1.47957
-0.0636067
0.0011117
-1.53135
0.0838715
1.53999
-0.0939852
0.00146735
-1.53765
0.0601391
-0.0644786
0.00255001
1.53944
-1.54787
0.0583849
-0.0634208
0.00268364
1.55022
0.0563182
-1.55565
1.55707
-0.0603379
0.00259859
0.0523964
-1.56001
1.56057
-0.0554283
0.00247192
0.0494219
-1.56125
1.56134
-0.0518261
0.00231331
0.0467249
-1.56071
1.56031
-0.0484805
0.00215369
-1.55357
0.177605
6.1532
-0.174345
0.0211353
-1.53809
-1.55239
-1.53355
23.8107
-0.748373
0.0582394
-6.09395
-5.79837
-6.09758
-5.78755
23.8335
-0.726245
0.0584299
23.8535
-0.710546
0.0577495
23.8725
-0.696626
0.0567814
23.8899
-0.684354
0.0560661
23.9053
-0.673439
0.0555538
23.9189
-0.663854
0.0551097
23.9307
-0.655603
0.054626
23.941
-0.648731
0.054024
23.95
-0.643166
0.0532524
23.9579
-0.638769
0.0522833
23.9654
-0.635499
0.0510877
23.9726
-0.633058
0.0497362
23.9799
-0.631247
0.0481844
23.9876
-0.630089
0.0464483
23.9959
-0.629245
0.0445124
24.0048
-0.628674
0.0423218
24.014
-0.628299
0.0397848
-0.627691
0.036821
25.003
0.00481037
0.000681002
25.0036
0.0237726
0.00136166
25.0007
0.0447061
0.00213546
24.995
0.0665854
0.00305186
24.9862
0.093642
0.00423598
24.9725
0.130766
0.00578377
24.9526
0.182726
0.00772471
24.921
0.260611
0.0102528
6.21276
0.386306
0.0133525
6.2208
6.21247
6.22052
-0.105436
6.19713
0.11911
0.00194718
-0.0390914
-1.54179
1.53559
0.0449532
0.000341914
-0.0812906
-1.5059
1.48732
0.0995899
0.000281647
0.00450057
-0.0747935
0.0749972
-0.00471802
1.3766e-05
-0.0214297
0.000450083
0.0209404
3.09895e-06
3.62031e-05
-0.210702
0.0110067
-0.0224595
0.000264786
0.22189
-1.19547
0.0614563
-0.0803148
0.00162353
1.21271
0.0540274
-1.24874
1.25633
-0.062221
0.000604573
0.0512205
-1.28101
1.28953
-0.0598634
0.000114784
0.047506
-1.31238
1.3198
-0.0546542
-0.000273343
0.0452844
-1.33979
1.34728
-0.0521857
-0.00058564
-1.39288
0.208052
5.8496
-0.219955
-0.0163784
-1.49682
-1.42765
-1.50396
24.1365
-0.670742
-0.100808
-5.89426
-6.17611
-5.86871
-6.17429
24.1508
-0.641162
-0.0993127
24.1617
-0.625708
-0.0957784
24.1715
-0.614226
-0.0922188
24.1809
-0.604752
-0.088989
24.1909
-0.597438
-0.0859674
24.2022
-0.592026
-0.0831864
24.2152
-0.588004
-0.0805702
24.2297
-0.585113
-0.0781617
24.2456
-0.583051
-0.0759744
24.2625
-0.581571
-0.0740573
24.2799
-0.580575
-0.0723704
24.2977
-0.579822
-0.071025
24.3156
-0.579165
-0.0699465
24.3331
-0.578443
-0.0692214
24.3505
-0.577771
-0.0688848
24.3676
-0.576792
-0.0689691
24.3841
-0.575222
-0.0695576
-0.572194
-0.0706347
25.0048
-0.000197313
0.000469785
25.0101
0.0175133
0.000937311
25.0151
0.0382879
0.00142244
25.0191
0.0605995
0.00196912
25.0211
0.0891549
0.0025642
25.0261
0.122476
0.00327761
25.038
0.166837
0.00398255
25.0635
0.230603
0.00453365
6.27391
0.331344
0.0046651
6.28173
6.27417
6.28403
-0.111323
6.28139
0.103284
0.000565569
-0.0445285
-1.57767
1.57928
0.0428598
5.87218e-05
-0.0842411
-1.59738
1.61218
-0.000122939
0.0695659
-0.0262124
-1.71227
1.75182
-0.00189984
0.0577774
-0.0213895
-0.0263226
-0.0215015
0.0999246
-1.71275
1.683
-0.00151638
-0.068655
0.101927
-1.60976
-0.00214272
1.59936
-0.0893888
0.0784229
-1.58495
-0.002165
1.58199
-0.0732983
0.0573683
-1.57719
1.57621
-0.054189
-0.00219702
0.0579029
-1.57436
1.57254
-0.0538856
-0.0021974
0.0520201
-1.57212
1.57147
-0.0491957
-0.00217512
0.0481858
-1.57055
1.57007
-0.0455606
-0.0021423
-1.56782
0.179814
6.26563
-0.158295
-0.0169608
-1.56733
-1.56759
-1.56746
25.0734
-0.53744
-0.126067
-6.26956
-6.26931
-6.27187
-6.26989
25.0742
-0.516863
-0.125039
25.0714
-0.500371
-0.12256
25.0679
-0.490588
-0.120147
25.0648
-0.483692
-0.118
25.0622
-0.478859
-0.116014
25.06
-0.475529
-0.11429
25.0579
-0.473087
-0.112787
25.0563
-0.471974
-0.111561
25.055
-0.471115
-0.110615
25.0538
-0.470384
-0.110002
25.0531
-0.470256
-0.109562
25.0526
-0.469893
-0.109452
25.0521
-0.469118
-0.109524
25.0522
-0.468684
-0.109867
25.0526
-0.467761
-0.110469
25.0536
-0.466414
-0.111327
25.0552
-0.464355
-0.112477
-0.461795
-0.11379
25.0058
-0.00529019
0.000239823
25.0144
0.00844992
0.000514819
25.0275
0.0244372
0.000734923
25.0389
0.0482597
0.000906125
25.0543
0.0727417
0.000988981
25.0778
0.0980991
0.000892246
25.1156
0.128592
0.000466503
25.1785
0.1684
-0.000711332
6.32028
0.2304
-0.00306976
6.31849
6.32465
6.3191
-0.088584
6.33622
0.0732951
-0.000647877
-0.0332666
6.41227
0.0880044
-0.00142381
-0.0344745
-0.0333889
-0.0340355
-6.36369
-0.0336846
6.51564
0.0766109
-0.00292798
-0.0265043
-0.0334964
-0.0263823
-6.46925
-0.00795677
-6.54637
6.51318
-0.00428102
-0.00541594
0.0143836
-0.00818937
0.0446768
0.044795
-6.53499
6.51329
-0.121561
-0.00843962
0.038573
0.0354967
0.0328723
0.0543908
-6.44902
6.41161
-0.175589
-0.0107965
0.0548699
0.0568038
0.0577519
0.0558728
-6.37176
6.33968
-0.174026
-0.0124456
0.0546254
0.0548135
0.0532378
0.0461978
-6.32163
6.31048
-0.15606
-0.013714
0.0452714
0.0450332
0.044405
0.0441919
-6.3019
6.29612
-0.155077
-0.0145654
0.0439511
0.0437527
0.04352
0.0411546
-6.29178
6.28651
-0.142123
-0.0150473
0.0406399
0.0406467
0.039995
0.0381825
-6.28236
6.27703
-0.129894
-0.0153195
0.0377
0.0376474
0.0370179
0.14107
-6.27557
6.27375
-0.123608
-0.015634
25.0743
-0.400159
-0.127109
-6.27132
-6.27123
-6.27153
-6.27039
25.0664
-0.383235
-0.12574
25.0623
-0.372229
-0.124078
25.0593
-0.364853
-0.122746
25.0572
-0.359935
-0.121657
25.0555
-0.356435
-0.120737
25.0542
-0.354236
-0.119994
25.0534
-0.352839
-0.119433
25.0525
-0.352047
-0.119032
25.0518
-0.351641
-0.118763
25.0513
-0.351222
-0.118626
25.0509
-0.351385
-0.118534
25.0505
-0.350991
-0.118461
25.0509
-0.351054
-0.118476
25.0514
-0.350598
-0.118565
25.0521
-0.349712
-0.118729
25.0537
-0.349007
-0.119028
25.0567
-0.347809
-0.119522
-0.346559
-0.120245
25.0065
-0.0104293
0.000113918
25.0164
-0.00173768
0.000184288
25.0255
0.0152122
0.000164219
25.0422
0.0314801
4.33987e-05
25.069
0.0462593
-0.000316606
25.1026
0.065568
-0.00103691
25.1501
0.0834108
-0.00233528
25.2164
0.106769
-0.00465822
25.325
0.130376
-0.008626
25.4295
0.143906
-0.0150289
-0.0611012
-0.0567557
-0.0585593
-0.0569532
25.5766
0.131385
-0.0246532
-0.0607602
-0.0642703
-0.0616415
-0.0671233
25.7101
0.0539993
-0.0384128
-0.0424054
-0.0287797
-0.045577
-0.0320523
25.5884
-0.156781
-0.0552835
0.0204988
0.12322
0.0194769
0.170992
25.4967
-0.238104
-0.073877
0.0824882
0.116144
0.0983144
0.107157
25.4288
-0.249034
-0.0898897
0.0822087
0.147742
0.0309463
0.146254
25.3435
-0.353265
-0.1021
0.134712
0.137763
0.133131
0.135096
25.2599
-0.32272
-0.110143
0.128541
0.132165
0.126275
0.129387
25.1944
-0.331904
-0.115171
0.131419
0.128288
0.128195
0.124475
25.1522
-0.309611
-0.118112
0.121054
0.117771
0.117606
0.113429
25.1295
-0.289265
-0.119758
0.1101
0.109759
0.105268
0.10664
25.1111
-0.273566
-0.120637
0.105154
0.104383
0.102256
0.100788
25.0945
-0.262646
-0.120955
25.0845
-0.252659
-0.120618
25.078
-0.245546
-0.120165
25.0731
-0.240129
-0.119828
25.0691
-0.236421
-0.119494
25.0662
-0.234298
-0.119254
25.0633
-0.232217
-0.119123
25.061
-0.231471
-0.119106
25.0588
-0.23065
-0.119205
25.0572
-0.230603
-0.119399
25.0561
-0.230472
-0.119677
25.0549
-0.230119
-0.120025
25.0544
-0.230216
-0.12034
25.0539
-0.22972
-0.120753
25.0538
-0.229336
-0.121165
25.0546
-0.228987
-0.121615
25.0562
-0.228417
-0.122128
25.0579
-0.226831
-0.12274
-0.225453
-0.123462
25.0068
-0.0153381
-9.24027e-06
25.0101
-0.00499287
-5.40761e-05
25.018
0.00752654
-0.000238619
25.0377
0.0122437
-0.000551193
25.0634
0.0217459
-0.00119394
25.093
0.0383079
-0.00232354
25.1411
0.0394719
-0.00414766
25.2024
0.0525321
-0.0070429
25.2815
0.0629558
-0.0116179
25.377
0.0669525
-0.0183992
25.4833
0.0533284
-0.0279454
25.5628
0.0157254
-0.0408006
25.54
-0.0773495
-0.0561271
25.5256
-0.151182
-0.0720742
25.4031
-0.0399053
-0.0862519
25.321
-0.173394
-0.0975647
25.2715
-0.167889
-0.105275
25.2108
-0.16084
-0.110399
25.1668
-0.152219
-0.113431
25.1358
-0.143139
-0.115152
25.1132
-0.134984
-0.116052
25.0957
-0.128824
-0.116324
25.0832
-0.12381
-0.116306
25.0739
-0.120242
-0.116084
25.0672
-0.117542
-0.115868
25.0622
-0.115842
-0.115604
25.0578
-0.114479
-0.115464
25.0548
-0.113787
-0.115447
25.0525
-0.113642
-0.115478
25.0506
-0.113202
-0.115613
25.0492
-0.113398
-0.115807
25.048
-0.113169
-0.116044
25.0476
-0.113441
-0.116258
25.0471
-0.113241
-0.116477
25.0474
-0.113377
-0.1167
25.048
-0.112975
-0.116892
25.049
-0.112978
-0.117073
25.0505
-0.112643
-0.117282
25.0533
-0.112025
-0.117573
-0.11229
-0.118013
24.9871
-5.89455e-05
24.9822
-0.000131425
24.9901
-0.00040134
25.003
-0.000743894
25.0263
-0.00154195
25.0674
-0.00279194
25.1116
-0.00478301
25.1721
-0.00790344
25.2479
-0.0126837
25.3345
-0.019481
25.4169
-0.0287243
25.4738
-0.0406892
25.4515
-0.0545436
25.3697
-0.0688645
25.412
-0.0818848
25.3316
-0.0927991
25.2643
-0.100428
25.2088
-0.105362
25.1649
-0.108355
25.1318
-0.110052
25.1077
-0.110934
25.0901
-0.111249
25.0775
-0.111251
25.0683
-0.11106
25.0617
-0.110933
25.0566
-0.110827
25.053
-0.110838
25.0502
-0.111023
25.0478
-0.1112
25.0461
-0.111503
25.0446
-0.111885
25.0436
-0.112249
25.0428
-0.11259
25.0425
-0.112934
25.0424
-0.113306
25.0431
-0.113622
25.044
-0.113898
25.0455
-0.114177
25.048
-0.114514
-0.114984
24.9952
0.00195868
0.00260347
24.9879
0.00474837
0.00538668
24.9766
0.00734212
0.00864063
24.9601
0.0105112
0.0126478
24.9384
0.0133979
0.0177352
24.9087
0.0181746
0.0243268
24.8665
0.0264805
0.032815
24.809
0.0364246
0.0436137
24.7534
0.0278557
0.0570252
24.7174
-9.47583e-05
0.0733603
24.6931
-0.0213243
0.0919751
24.6315
0.00525249
0.112352
24.6608
-0.0960328
0.133226
24.7789
-0.194949
0.153272
24.8118
-0.118125
0.170655
24.8363
-0.116192
0.184545
24.8601
-0.120233
0.195092
24.8798
-0.119837
0.202958
24.8971
-0.119958
0.20865
24.9247
-0.132251
0.212697
24.9522
-0.133531
0.215428
24.9736
-0.12832
0.21739
24.9905
-0.12448
0.218892
25.0044
-0.122201
0.220142
25.0157
-0.120291
0.221282
25.0254
-0.119199
0.222389
25.0333
-0.11813
0.223505
25.0398
-0.117342
0.224636
25.0454
-0.117042
0.225809
25.0503
-0.116935
0.227018
25.0544
-0.11672
0.228209
25.0578
-0.116608
0.229349
25.0611
-0.117076
0.230376
25.0645
-0.117573
0.231327
25.0676
-0.117587
0.232068
25.0709
-0.118169
0.232668
25.0743
-0.118495
0.232926
25.0781
-0.118904
0.232997
25.0828
-0.119574
0.232664
-0.120096
0.231395
24.9953
0.00392187
0.0025419
24.9881
0.0094705
0.0052577
24.9763
0.0152356
0.00844253
24.9599
0.0210523
0.012388
24.9378
0.0273142
0.0174228
24.9099
0.0345344
0.023994
24.8767
0.0440247
0.0325302
24.8341
0.0578259
0.0435537
24.7715
0.0622092
0.0575448
24.6963
0.0378917
0.0748806
24.654
-0.0267613
0.0952254
24.5935
0.00574347
0.117919
24.6295
-0.203448
0.141192
24.7617
-0.409593
0.163343
24.8421
-0.289838
0.181931
24.9099
-0.281965
0.196513
24.9603
-0.273895
0.207573
25.001
-0.267515
0.215672
25.0466
-0.275461
0.221525
25.0793
-0.276754
0.225564
25.0986
-0.266
0.228282
25.1125
-0.256198
0.230233
25.122
-0.248556
0.231803
25.1291
-0.244704
0.233137
25.1348
-0.242121
0.234341
25.1386
-0.239888
0.235492
25.141
-0.238213
0.236665
25.143
-0.237849
0.237882
25.1441
-0.237432
0.239143
25.1445
-0.237341
0.240422
25.1448
-0.237742
0.241678
25.1451
-0.238311
0.242863
25.1448
-0.238743
0.243979
25.1445
-0.239726
0.244927
25.1448
-0.240757
0.245693
25.1448
-0.241332
0.246233
25.1454
-0.242476
0.246505
25.1468
-0.243701
0.246482
25.1485
-0.244487
0.246119
-0.245732
0.2448
24.9954
0.00586294
0.00241551
24.9885
0.0140663
0.00499755
24.9769
0.0230395
0.00803915
24.96
0.032313
0.0118355
24.9369
0.0424961
0.0167332
24.9067
0.0535254
0.0232116
24.8686
0.0667274
0.0318038
24.8222
0.0831333
0.0431887
24.7569
0.0988605
0.058136
24.6627
0.0937372
0.0772956
24.5865
0.00464413
0.100775
-0.00573374
0.00472306
-0.00469788
24.7217
-0.038821
0.127493
-0.0592284
-0.0379476
-0.0578035
24.5806
0.0213463
0.154856
-0.0945324
0.0232955
-0.0916548
24.742
-0.213327
0.180498
-0.121976
-0.210133
-0.117945
24.8309
-0.126106
0.200081
-0.118385
-0.122099
-0.113821
24.8896
-0.1151
0.214865
-0.113802
-0.111026
-0.109218
24.9429
-0.112637
0.226066
-0.112305
-0.108328
-0.107762
25.0079
-0.115336
0.234211
-0.114362
-0.110981
-0.10979
25.0502
-0.112252
0.239969
-0.111037
-0.108014
-0.107251
25.0763
-0.109094
0.243747
-0.107532
-0.105517
-0.103525
25.0953
-0.40824
0.245816
25.1088
-0.393514
0.247449
25.1181
-0.382243
0.249002
25.1249
-0.377553
0.251104
25.1301
-0.374544
0.252777
25.1336
-0.372179
0.254496
25.136
-0.370464
0.255594
25.137
-0.369834
0.256885
25.1372
-0.369781
0.258127
25.1375
-0.370892
0.259318
25.1366
-0.371003
0.260427
25.1356
-0.372287
0.261421
25.135
-0.373544
0.262021
25.1336
-0.374437
0.262933
25.1321
-0.375673
0.26336
25.131
-0.376827
0.26353
25.13
-0.37815
0.263397
25.1294
-0.379502
0.262922
25.1298
-0.380927
0.262106
-0.382185
0.260387
24.9964
0.00739775
0.00222079
24.9899
0.0184913
0.00459581
24.9786
0.0307969
0.00740328
24.962
0.0436937
0.0109343
24.9388
0.0582939
0.0155459
24.9055
0.0762346
0.0217356
24.8608
0.0968325
0.0301701
24.8029
0.120474
0.0416863
24.7353
0.138034
0.0574519
6.14297
0.0370376
0.0788374
0.0518693
0.0372237
0.0517669
6.16311
6.14305
6.16261
-0.0113776
6.12606
0.0156462
0.0172593
-0.0149524
-6.11429
6.10276
-0.0351039
0.022681
-0.0186505
-6.10698
6.0998
0.0187357
0.0283285
-0.0223459
-6.11519
6.14706
-0.256828
0.0338719
-0.0251311
-6.16477
6.17823
-0.152424
0.0379395
-0.0271146
-6.19084
6.20129
-0.139251
0.0408217
-0.0286643
-6.21192
6.22607
-0.141224
0.0431485
-0.0298457
-6.23872
6.24582
-0.137492
0.0449516
-0.030702
-6.25161
6.25676
-0.132908
0.0462382
-0.0313325
-6.26057
6.26464
-0.128996
0.0471781
25.1016
-0.140954
0.266519
-0.140951
-0.142312
-0.140469
-6.26868
-6.27223
-6.26845
-6.27183
25.1096
-0.535876
0.267216
25.1149
-0.523746
0.26902
25.1192
-0.521687
0.272253
25.1212
-0.519205
0.274892
25.1207
-0.517055
0.277521
25.1192
-0.51632
0.279368
25.1161
-0.516078
0.281223
25.1117
-0.516366
0.282844
25.1059
-0.517522
0.284222
25.0996
-0.51838
0.285332
25.0926
-0.519761
0.286141
25.0848
-0.520708
0.286344
25.0768
-0.521942
0.286708
25.0686
-0.522925
0.286341
25.0606
-0.524026
0.28566
25.0524
-0.524524
0.28443
25.0448
-0.525559
0.282715
25.0388
-0.527315
0.280463
-0.528166
0.277159
24.9982
0.00725171
0.00195538
24.9929
0.0219314
0.00404908
24.9831
0.037425
0.00651918
24.9682
0.0540079
0.00963456
24.9458
0.0740622
0.0137333
24.9134
0.0995196
0.0190351
24.8645
0.13249
0.0269819
24.7918
0.174481
0.0377148
6.17323
0.223122
0.0530073
6.16639
6.17369
6.16668
-0.00782403
6.15833
0.0478674
0.0118997
-0.010978
6.1331
0.0167557
-6.16127
0.0192334
0.0109108
0.0194548
0.0106762
-0.0378587
-0.0148608
-6.08106
6.04877
0.0228555
-0.00321226
0.00248125
-0.00318101
0.00239947
0.0257222
-0.0192452
-6.04819
6.06253
0.0296329
0.0516959
-0.041186
0.0513411
-0.0410634
-0.0456168
-0.0236491
-6.10309
6.14373
0.035744
-0.050386
-0.128819
-0.0509098
-0.128491
0.305799
-0.0259494
-6.17299
6.18249
0.038174
-0.0480305
-0.0517642
-0.0485378
-0.0512876
0.177849
-0.0274145
-6.19434
6.20755
0.0398979
-0.0489418
-0.0484207
-0.0493107
-0.048038
0.169069
-0.0287926
-6.22092
6.23272
0.0416716
-0.047468
-0.0475889
-0.047658
-0.0473842
0.165532
-0.0298997
-6.24232
6.24943
0.043124
-0.044702
-0.0448584
-0.044953
-0.0448337
0.159077
-0.0307359
-6.25577
6.25995
0.0442829
-0.0425435
-0.0425812
-0.0424117
-0.0427037
0.152513
-0.031476
-6.26401
6.2663
0.0452489
-0.0408379
-0.0407096
-0.0403634
-0.0409376
0.146765
-6.26922
-0.0327964
6.27134
-0.156037
0.0457415
25.0524
-0.626982
0.255185
-6.27363
-6.2694
-6.27375
-6.26598
25.0296
-0.626067
0.257558
25.003
-0.626145
0.260008
24.975
-0.626504
0.260924
24.9474
-0.628224
0.261256
24.9197
-0.63052
0.261367
24.8928
-0.632977
0.260601
24.8665
-0.635635
0.25976
24.8405
-0.638225
0.25859
24.8156
-0.640644
0.25706
24.7918
-0.642741
0.254913
24.7689
-0.644293
0.252877
24.7469
-0.645112
0.250126
24.7262
-0.645624
0.246982
24.7065
-0.645498
0.243444
24.6886
-0.645105
0.239434
24.6723
-0.644755
0.234878
24.6581
-0.64515
0.229722
-0.647231
0.223662
25.002
0.00386135
0.00161443
24.9996
0.0227219
0.00336375
24.9918
0.042648
0.00539687
24.9796
0.0623688
0.00793843
24.9619
0.086276
0.0112628
24.9358
0.118497
0.0152456
24.8933
0.164132
0.0219352
24.8218
0.230672
0.0305536
6.17239
0.33447
0.0431165
6.17149
6.17268
6.1716
-0.00622364
-0.0626877
6.14707
0.0845263
0.00966302
-0.00202564
-0.0185992
-1.52809
1.52291
0.0231146
0.00268254
-0.00295214
-0.0171212
-1.50498
1.49269
0.0285679
0.0037761
-0.00424851
-1.47099
0.0535164
1.4813
-0.064956
0.00538153
-0.00578557
-1.53141
0.152925
1.5432
-0.165864
0.00694222
-0.00677362
-1.53914
0.0559039
-0.0574025
1.54033
0.00707914
-1.54835
-0.00715924
0.0550679
-0.0576239
0.00709737
1.55096
-0.00791213
0.0525799
-1.55665
1.55819
-0.0533714
0.00716265
-0.00862151
0.0479234
-1.56158
1.56231
-0.047285
0.00725959
-0.00908541
0.0446021
-1.56361
1.56393
-0.0431912
0.00735408
-0.00933067
0.0420098
-1.56414
1.56405
-0.04003
0.00744098
-1.56113
-0.03658
0.157392
6.1994
-0.119982
0.0243274
-1.55321
-1.56026
-1.54997
23.8996
-0.690355
0.11929
-6.1338
-5.86811
-6.1012
-5.79425
23.8932
-0.686977
0.125736
23.8892
-0.692801
0.128422
23.8882
-0.697138
0.128417
23.89
-0.701147
0.12718
23.8942
-0.704667
0.12547
23.9012
-0.707651
0.122841
23.9101
-0.710097
0.120181
23.9205
-0.712011
0.11736
23.932
-0.713273
0.114404
23.9443
-0.713794
0.111084
23.9566
-0.713627
0.108095
23.9692
-0.712691
0.104692
23.9817
-0.711082
0.101124
23.9943
-0.708917
0.0973121
24.0069
-0.706342
0.093169
24.0194
-0.703525
0.0884964
24.0318
-0.700621
0.082892
-0.697635
0.075459
25.009
0.00255584
0.0013004
25.0097
0.0207589
0.00260577
25.0063
0.0440896
0.00410938
24.9995
0.0663105
0.00594463
24.9894
0.0923065
0.0082701
24.9757
0.12722
0.0107985
24.9559
0.176356
0.0152821
24.9249
0.251385
0.0205059
6.21329
0.375274
0.0277038
6.22139
6.21336
6.22167
-0.00386013
-0.10252
6.19763
0.116015
0.00601927
-0.00121395
-0.0381658
-1.54183
1.53561
0.0439826
0.00160705
-0.00177509
-0.079432
-1.50539
1.48681
0.0975
0.00229347
-0.000230012
0.00475343
-0.0749874
0.0752603
-0.00504762
0.000251581
0.00323379
-0.217664
0.0155616
-0.0279826
-0.000557079
0.227407
-1.12121
0.0141993
0.0486964
-0.069155
-0.00618643
1.13367
0.0154476
0.0343374
-1.15075
1.15131
-0.0449211
-0.00541291
0.0149775
0.027522
-1.15842
1.16278
-0.0411871
-0.00567445
0.0139405
0.0206258
-1.1778
1.18424
-0.0347803
-0.00622525
0.0124455
0.0171422
-1.20599
1.21616
-0.0330355
-0.00672298
-1.29157
0.0312516
0.120102
5.62264
-0.186734
-0.0319382
-1.46397
-1.32931
-1.47048
23.9983
-0.657243
-0.213099
-5.73182
-6.16061
-5.86049
-6.16625
24.059
-0.634909
-0.212028
24.1111
-0.630426
-0.210273
24.1581
-0.628212
-0.208123
24.1998
-0.626662
-0.205198
24.2369
-0.626025
-0.2017
24.2701
-0.626189
-0.197891
24.3
-0.62669
-0.193926
24.3271
-0.627295
-0.189893
24.3514
-0.627751
-0.185841
24.3735
-0.628086
-0.181844
24.3937
-0.628314
-0.177929
24.4125
-0.628282
-0.174247
24.43
-0.627657
-0.170825
24.4463
-0.626615
-0.167803
24.4615
-0.625174
-0.165337
24.4761
-0.623336
-0.163721
24.4899
-0.620664
-0.16332
-0.616133
-0.16478
25.0084
-0.00262468
0.00090218
25.0155
0.0127707
0.00179373
25.0222
0.0360378
0.00274778
25.0261
0.060572
0.00382209
25.0254
0.0905676
0.00505112
25.0296
0.120085
0.00618562
25.0412
0.160825
0.00790196
25.0688
0.219167
0.00919642
6.2754
0.307834
0.00990342
6.28777
6.27682
6.2912
-0.00116201
-0.107834
6.28258
0.10005
0.00179432
-0.000249774
-0.0435769
-1.5775
1.57908
0.041937
0.000314736
-7.06548e-05
-0.0804599
-1.59891
1.61513
0.0642135
0.000112578
0.000225186
-0.0268585
-1.7105
1.74891
0.05996
0.00103888
-0.0224131
-0.0277568
-0.0226175
0.00334165
0.107441
-1.70855
1.6777
-0.0770045
-0.00292829
0.101488
-1.60909
0.00496969
1.59835
-0.090687
-0.00501381
0.00608162
0.0718498
-1.58368
-0.0064011
1.58156
-0.0693869
0.0069615
0.051753
-1.57825
1.57673
-0.0499358
-0.00724292
0.00749391
0.0531988
-1.57583
1.57438
-0.0514555
-0.00778686
0.00777648
0.0473212
-1.57357
1.57292
-0.0462976
-0.00815797
0.00784245
0.0439947
-1.57013
1.57043
-0.0437571
-0.00837401
-1.57019
0.0320951
0.166544
6.27566
-0.152303
-0.0399471
-1.57031
-1.57044
-1.57109
25.09
-0.516682
-0.248368
-6.27783
-6.27072
-6.28373
-6.27595
25.0887
-0.509586
-0.249049
25.0843
-0.499671
-0.248945
25.0795
-0.494503
-0.249092
25.0748
-0.490723
-0.249216
25.0709
-0.488934
-0.249248
25.0675
-0.487811
-0.24929
25.0648
-0.487285
-0.249406
25.0626
-0.487071
-0.249611
25.0608
-0.48672
-0.249897
25.0595
-0.486545
-0.250262
25.0591
-0.486524
-0.25092
25.0588
-0.486249
-0.251163
25.0584
-0.485156
-0.251696
25.0588
-0.484566
-0.252313
25.0595
-0.483188
-0.253156
25.0606
-0.481355
-0.254367
25.0621
-0.47851
-0.256096
-0.475161
-0.258218
25.0071
-0.00735027
0.000531878
25.0173
0.002014
0.00101841
25.0316
0.0210457
0.00145119
25.0401
0.0511811
0.00180148
25.0577
0.0719249
0.00198482
25.081
0.0957848
0.00182731
25.1186
0.122722
0.000994654
25.1834
0.154889
-0.00115085
6.32919
0.195248
-0.00574477
6.3185
6.33356
6.31741
-0.0850501
0.00121158
6.34728
0.0676277
-0.00188171
-0.0326429
0.00289021
6.42009
0.0864137
-0.00424582
-0.03065
-0.0327923
-0.0296675
-6.37945
-0.0290998
0.00594742
6.49022
0.0801552
-0.00877151
-0.0286089
-0.0279439
-0.0306396
-6.45123
-0.00944321
0.0104961
-6.53813
6.49744
-0.058537
-0.0161853
0.0625861
-0.0103768
0.0622372
0.0346766
0.0170879
-6.49042
6.47267
-0.144049
-0.0253638
0.051007
0.0341366
0.0503718
0.0576481
-6.44986
0.0224703
6.40692
-0.182739
-0.0329507
0.0569704
0.0611701
0.0604717
0.0557076
0.0260598
-6.36715
6.33939
-0.177425
-0.0382978
0.0538189
0.0548631
0.0530325
0.0455811
0.028575
-6.32547
6.31822
-0.159128
-0.0420494
0.0449032
0.0449293
0.0443729
0.0442121
0.0301942
-6.31386
6.30591
-0.154358
-0.0444937
0.0446406
0.043642
0.0440623
0.0432863
0.0310412
-6.2973
6.28849
-0.14343
-0.04592
0.0407508
0.0428039
0.0402693
0.038237
0.0314791
-6.28124
6.2736
-0.125988
-0.0466696
0.035252
0.0388144
0.0365296
0.135451
-6.2722
0.0320397
6.27272
-0.121072
-0.0469301
25.0765
-0.380754
-0.258791
-6.27124
-6.26915
-6.27161
-6.26871
25.0705
-0.371778
-0.257542
25.067
-0.36388
-0.256404
25.0639
-0.358445
-0.255763
25.0619
-0.355182
-0.255176
25.0598
-0.353006
-0.254584
25.0582
-0.35223
-0.254034
25.0571
-0.352064
-0.253556
25.0559
-0.351771
-0.253157
25.0554
-0.352152
-0.252834
25.0549
-0.352055
-0.252553
25.0547
-0.352345
-0.252599