/*--------------------------------*- C++ -*----------------------------------*\
| =========                 |                                                 |
| \\      /  F ield         | OpenFOAM: The Open Source CFD Toolbox           |
|  \\    /   O peration     | Version:  2306                                  |
|   \\  /    A nd           | Website:  www.openfoam.com                      |
|    \\/     M anipulation  |                                                 |
\*---------------------------------------------------------------------------*/
FoamFile
{
    version     2.0;
    format      ascii;
    arch        "LSB;label=32;scalar=64";
    class       volVectorField;
    location    "0.85";
    object      U;
}
// * * * * * * * * * * * * * * * * * * * * * * * * * * * * * * * * * * * * * //

dimensions      [0 1 -1 0 0 0 0];

internalField   nonuniform List<vector> 
111542
(
(99.9932 0.00555446 0.00274859)
(99.9706 0.0112271 0.00581022)
(99.9288 0.0169934 0.00925183)
(99.8666 0.0230142 0.0134973)
(99.7829 0.0290446 0.0188976)
(99.6756 0.0343168 0.0258755)
(99.5441 0.0369766 0.034679)
(99.3906 0.0340591 0.0457931)
(99.2247 0.0209344 0.05972)
(99.0665 -0.00878005 0.076511)
(98.9489 -0.0606583 0.0957226)
(98.9122 -0.13226 0.116585)
(98.9817 -0.205373 0.138281)
(99.147 -0.260429 0.158839)
(99.3627 -0.287189 0.176678)
(99.5808 -0.295623 0.191329)
(99.7753 -0.294659 0.202627)
(99.94 -0.288665 0.21104)
(100.076 -0.280316 0.217064)
(100.186 -0.271523 0.221371)
(100.275 -0.263597 0.224266)
(100.344 -0.256802 0.226292)
(100.397 -0.250911 0.227961)
(100.439 -0.246336 0.229194)
(100.472 -0.243028 0.230149)
(100.497 -0.240672 0.231148)
(100.517 -0.239453 0.232062)
(100.531 -0.239255 0.232974)
(100.541 -0.23974 0.234066)
(100.548 -0.240714 0.235329)
(100.552 -0.242053 0.236684)
(100.554 -0.243693 0.238004)
(100.555 -0.245385 0.239359)
(100.556 -0.24703 0.240682)
(100.556 -0.248602 0.241862)
(100.558 -0.250112 0.242785)
(100.56 -0.251627 0.243304)
(100.565 -0.253034 0.243502)
(100.572 -0.254388 0.24338)
(100.586 -0.255939 0.243012)
(99.9935 0.0165427 0.00269802)
(99.9713 0.033382 0.00563124)
(99.93 0.0509016 0.0090387)
(99.8683 0.0695001 0.0132407)
(99.7839 0.0886178 0.0185818)
(99.6733 0.106201 0.0254768)
(99.5336 0.117353 0.0343632)
(99.3643 0.113282 0.0457553)
(99.1717 0.0793881 0.0601297)
(98.9748 -0.00529611 0.0776588)
(98.8147 -0.157856 0.0981496)
(98.7572 -0.371272 0.11993)
(98.8455 -0.592687 0.143195)
(99.0563 -0.750583 0.165363)
(99.3161 -0.827816 0.184325)
(99.5612 -0.85544 0.199476)
(99.7697 -0.855531 0.211063)
(99.9413 -0.840467 0.219637)
(100.08 -0.818674 0.225809)
(100.19 -0.795074 0.230197)
(100.276 -0.772937 0.233356)
(100.342 -0.754471 0.235841)
(100.394 -0.739349 0.237826)
(100.434 -0.727232 0.239186)
(100.464 -0.716707 0.240022)
(100.488 -0.707134 0.240602)
(100.506 -0.699268 0.241107)
(100.519 -0.693469 0.241687)
(100.528 -0.689522 0.242449)
(100.534 -0.687225 0.243418)
(100.537 -0.686413 0.244562)
(100.539 -0.686926 0.245821)
(100.54 -0.688355 0.24714)
(100.54 -0.690462 0.248431)
(100.54 -0.693112 0.24958)
(100.541 -0.696229 0.250478)
(100.542 -0.699811 0.251025)
(100.546 -0.703647 0.251185)
(100.552 -0.707709 0.25096)
(100.564 -0.71208 0.250505)
(99.9938 0.0271152 0.0025662)
(99.9727 0.0548227 0.00534451)
(99.9331 0.0844128 0.00859978)
(99.8728 0.116775 0.0126361)
(99.7882 0.151683 0.0178104)
(99.6731 0.186846 0.0245797)
(99.5199 0.21598 0.0334942)
(99.3214 0.225474 0.0451993)
(99.075 0.188714 0.0603748)
(98.7983 0.0573842 0.0795496)
(98.551 -0.276454 0.102931)
(98.4443 -0.735668 0.129688)
(98.5718 -1.14745 0.154549)
(98.877 -1.37838 0.178059)
(99.2165 -1.46977 0.197666)
(99.5078 -1.49667 0.212968)
(99.7422 -1.48258 0.224539)
(99.9266 -1.44828 0.233013)
(100.069 -1.40715 0.239081)
(100.179 -1.36512 0.243455)
(100.261 -1.32765 0.246936)
(100.323 -1.29403 0.249953)
(100.371 -1.27144 0.252136)
(100.409 -1.25859 0.253217)
(100.44 -1.24928 0.253305)
(100.464 -1.24106 0.252665)
(100.48 -1.23426 0.251594)
(100.491 -1.22935 0.250376)
(100.497 -1.22627 0.249259)
(100.5 -1.22484 0.248421)
(100.5 -1.22484 0.247957)
(100.498 -1.22602 0.247882)
(100.495 -1.22806 0.24815)
(100.491 -1.2307 0.248665)
(100.487 -1.23376 0.249287)
(100.483 -1.23719 0.249857)
(100.481 -1.24098 0.250216)
(100.48 -1.24507 0.250243)
(100.481 -1.2494 0.249913)
(100.486 -1.25363 0.249476)
(99.9945 0.0367915 0.00235981)
(99.9755 0.0747704 0.00490948)
(99.9394 0.116326 0.00790423)
(99.8834 0.163533 0.011644)
(99.8019 0.217622 0.0164907)
(99.6857 0.278101 0.0229257)
(99.5203 0.34075 0.0315837)
(99.2853 0.392984 0.0432651)
(98.9522 0.405072 0.0589325)
(98.4577 0.203388 0.0796619)
(98.2035 0.0238782 0.0860879)
(97.8652 -0.628645 0.100869)
(97.9392 -1.42073 0.113854)
(98.4204 -1.91871 0.125233)
(98.9132 -2.05495 0.136929)
(99.2905 -2.08292 0.145266)
(99.592 -2.05031 0.150948)
(99.8197 -1.98603 0.154664)
(99.9882 -1.91526 0.15699)
(100.115 -1.85124 0.158608)
(100.279 -1.917 0.262912)
(100.328 -1.85454 0.269606)
(100.355 -1.80389 0.271375)
(100.376 -1.76726 0.269671)
(100.396 -1.73852 0.266499)
(100.408 -1.71612 0.262761)
(100.413 -1.69976 0.25888)
(100.409 -1.68873 0.25518)
(100.4 -1.68222 0.25191)
(100.386 -1.6795 0.249217)
(100.369 -1.67989 0.247143)
(100.348 -1.68268 0.24566)
(100.325 -1.6872 0.244677)
(100.3 -1.6929 0.244063)
(100.274 -1.69934 0.24366)
(100.247 -1.70626 0.243292)
(100.221 -1.71359 0.242771)
(100.197 -1.72132 0.241944)
(100.174 -1.72935 0.240759)
(100.151 -1.73656 0.239549)
(99.9955 0.0448294 0.00207847)
(99.9801 0.0916155 0.00431813)
(99.9504 0.144076 0.00694182)
(99.9033 0.206035 0.0102246)
(99.8322 0.281324 0.0145042)
(99.7257 0.373674 0.0202308)
(99.5643 0.485849 0.0280267)
(99.3155 0.616401 0.0387048)
(98.8746 0.751705 0.0533052)
(98.5324 0.757346 0.0585446)
(97.7269 0.365683 0.0714846)
(96.9376 -0.698987 0.0876428)
(97.0522 -2.33211 0.100419)
(98.1835 -2.89986 0.111316)
(98.8841 -2.90237 0.127847)
(99.3195 -2.85944 0.137434)
(99.6605 -2.75345 0.142631)
(99.8919 -2.63156 0.145559)
(100.046 -2.51805 0.147007)
(100.145 -2.42717 0.148153)
(100.211 -2.38614 0.152007)
(100.138 -2.52181 0.30765)
(100.045 -2.50307 0.305653)
(99.9552 -2.46429 0.294069)
(99.8744 -2.41837 0.278343)
(99.7947 -2.3759 0.261242)
(99.7138 -2.33971 0.244194)
(99.6318 -2.30977 0.228178)
(99.5489 -2.28564 0.213877)
(99.4653 -2.2668 0.201688)
(99.3812 -2.2525 0.191766)
(99.297 -2.24187 0.184076)
(99.2137 -2.23407 0.178441)
(99.1318 -2.22842 0.174577)
(99.0522 -2.22443 0.172131)
(98.9756 -2.2218 0.170703)
(98.903 -2.22052 0.169856)
(98.8355 -2.2209 0.169168)
(98.7752 -2.22381 0.168298)
(98.7166 -2.23137 0.167184)
(99.9971 0.0502988 0.00172799)
(99.9868 0.103316 0.00358019)
(99.9668 0.164048 0.00572582)
(99.9342 0.238182 0.00838597)
(99.8835 0.332647 0.0118278)
(99.8042 0.456809 0.0163981)
(99.6769 0.624322 0.0225678)
(99.465 0.855365 0.0309305)
(99.0443 1.18099 0.0422193)
(98.6352 1.34035 0.0466072)
(97.683 1.47558 0.0446389)
(95.5905 0.691826 0.0407791)
(94.4438 -3.44459 0.0544912)
(98.2754 -4.67856 0.0508372)
(98.7561 -3.85991 0.0838051)
(99.2644 -3.80426 0.0825067)
(99.6255 -3.61761 0.0750721)
(99.7842 -3.4026 0.0588978)
(99.8175 -3.20964 0.038113)
(99.7557 -3.02792 0.0211912)
(98.5199 -2.83491 0.115126)
(95.0794 -2.48651 0.209726)
(95.1754 -2.52899 0.183245)
(95.2843 -2.53272 0.163091)
(95.376 -2.51643 0.148142)
(95.4535 -2.49415 0.137326)
(95.5225 -2.47089 0.129361)
(95.5845 -2.44874 0.123084)
(95.6392 -2.42925 0.117578)
(95.6867 -2.41347 0.112178)
(95.7279 -2.40186 0.106458)
(95.7642 -2.39433 0.100215)
(95.7972 -2.39051 0.0934271)
(95.8284 -2.38983 0.086211)
(95.8593 -2.39164 0.0787492)
(95.8911 -2.39536 0.0712243)
(95.9247 -2.40052 0.063747)
(95.9606 -2.40699 0.0563187)
(95.9985 -2.41532 0.0488408)
(96.0447 -2.42793 0.0413349)
(99.9989 0.0522663 0.00136727)
(99.9951 0.107786 0.00276134)
(99.9876 0.172366 0.00433449)
(99.9748 0.252964 0.00623689)
(99.9542 0.358709 0.00862005)
(99.9207 0.503286 0.0116623)
(99.8661 0.708824 0.0155606)
(99.7753 1.01393 0.0204709)
(99.5994 1.49188 0.0263959)
(99.3284 1.89052 0.0288825)
(98.6005 2.82067 0.0265068)
(95.4377 5.78004 0.0185299)
(77.2217 -4.39246 0.0165153)
(102.844 -10.3023 0.0218447)
(53.6623 -3.45705 -0.196773)
(76.3385 -4.67469 0.135047)
(79.7107 -3.77764 0.166355)
(82.1399 -3.3456 0.168589)
(84.1121 -3.10228 0.144159)
(85.8733 -2.99633 0.108144)
(93.2735 -3.79407 -0.0727793)
(96.4351 -3.31796 -0.249128)
(96.5108 -3.17504 -0.226593)
(96.5889 -3.06906 -0.204279)
(96.64 -2.98642 -0.183977)
(96.6774 -2.91831 -0.16649)
(96.7151 -2.8611 -0.1519)
(96.7585 -2.81282 -0.140162)
(96.8087 -2.77211 -0.131193)
(96.8654 -2.73788 -0.124851)
(96.9279 -2.7093 -0.120942)
(96.9948 -2.68561 -0.119212)
(97.0648 -2.66607 -0.119353)
(97.1364 -2.64996 -0.121015)
(97.2087 -2.63655 -0.123842)
(97.2806 -2.62515 -0.127506)
(97.3516 -2.61511 -0.131777)
(97.4213 -2.60572 -0.136521)
(97.4892 -2.59601 -0.141704)
(97.5696 -2.58383 -0.147136)
(100.001 0.0502901 0.000997726)
(100.004 0.103772 0.00191886)
(100.01 0.166474 0.00289087)
(100.02 0.245477 0.00397744)
(100.033 0.350109 0.00520197)
(100.054 0.49415 0.0065429)
(100.087 0.699177 0.00788367)
(100.148 1.00115 0.00889036)
(100.289 1.4625 0.00879507)
(100.334 1.87389 0.0088987)
(100.597 2.86124 0.00554335)
(102.381 5.4078 -0.00330074)
(111.132 4.00573 -0.0704116)
(109.073 -6.69825 0.0062922)
(102.816 -6.74256 -0.0566505)
(101.15 -4.97873 -0.0625023)
(100.688 -3.99279 -0.058407)
(100.511 -3.44403 -0.0510554)
(100.43 -3.12002 -0.0441918)
(100.368 -2.92773 -0.040723)
(100.285 -2.69635 -0.139762)
(100.309 -2.27156 -0.27838)
(100.286 -2.15829 -0.275228)
(100.27 -2.08791 -0.266641)
(100.258 -2.04536 -0.256277)
(100.247 -2.0181 -0.245699)
(100.237 -2.00126 -0.235511)
(100.228 -1.99261 -0.226165)
(100.221 -1.99014 -0.218036)
(100.214 -1.99186 -0.211381)
(100.209 -1.99611 -0.206342)
(100.205 -2.00161 -0.202969)
(100.201 -2.00736 -0.201218)
(100.199 -2.01265 -0.200963)
(100.198 -2.01696 -0.202021)
(100.198 -2.01995 -0.20419)
(100.199 -2.02132 -0.207287)
(100.202 -2.02068 -0.211157)
(100.207 -2.01726 -0.215655)
(100.22 -2.00912 -0.220422)
(100.003 0.0440816 0.000532292)
(100.013 0.0910028 0.00102746)
(100.031 0.14606 0.00145216)
(100.061 0.215333 0.00176915)
(100.106 0.306469 0.00189648)
(100.173 0.429777 0.00164838)
(100.276 0.599582 0.000651874)
(100.442 0.835544 -0.00177438)
(100.758 1.16241 -0.00686701)
(100.98 1.40339 -0.00875217)
(101.827 1.86657 -0.015354)
(103.437 1.78739 -0.0275706)
(105.23 -0.201509 -0.0432602)
(104.785 -2.7905 -0.0252081)
(102.99 -3.51395 -0.0464222)
(101.772 -3.30422 -0.0643948)
(101.14 -2.95619 -0.0760058)
(100.803 -2.65948 -0.0830809)
(100.611 -2.43592 -0.0874059)
(100.486 -2.26911 -0.0904762)
(100.399 -2.13788 -0.0941369)
(100.305 -1.85636 -0.253267)
(100.271 -1.81921 -0.251796)
(100.249 -1.79116 -0.247795)
(100.235 -1.77194 -0.243275)
(100.226 -1.75806 -0.239022)
(100.22 -1.74737 -0.235311)
(100.214 -1.73914 -0.232317)
(100.21 -1.73289 -0.230145)
(100.206 -1.72805 -0.228799)
(100.203 -1.72414 -0.228204)
(100.201 -1.72075 -0.228236)
(100.199 -1.71751 -0.22875)
(100.198 -1.71411 -0.229592)
(100.198 -1.71023 -0.230636)
(100.199 -1.7056 -0.231797)
(100.202 -1.69996 -0.233047)
(100.207 -1.69304 -0.234417)
(100.216 -1.68466 -0.235993)
(100.235 -1.67509 -0.237929)
(100.004 0.0341422 0.000229121)
(100.02 0.0705767 0.000365227)
(100.049 0.113183 0.000308477)
(100.095 0.166371 -3.20129e-05)
(100.162 0.235275 -0.000809925)
(100.262 0.325832 -0.00232958)
(100.408 0.444423 -0.0051025)
(100.626 0.59562 -0.00995686)
(100.959 0.775782 -0.018215)
(101.444 0.861294 -0.0315031)
(102.082 0.766532 -0.0513509)
(102.758 0.241889 -0.0788348)
(103.117 -0.745247 -0.110358)
(102.871 -1.57699 -0.14024)
(102.228 -1.88487 -0.171446)
(101.598 -1.89103 -0.197102)
(101.152 -1.80467 -0.214579)
(100.864 -1.69833 -0.225539)
(100.674 -1.5966 -0.232198)
(100.542 -1.50594 -0.236086)
(100.452 -1.42723 -0.238267)
(100.392 -1.35811 -0.239483)
(100.351 -1.30176 -0.2396)
(100.321 -1.25563 -0.239009)
(100.299 -1.21964 -0.238132)
(100.283 -1.1925 -0.237221)
(100.269 -1.17238 -0.236434)
(100.257 -1.15783 -0.235889)
(100.247 -1.14768 -0.235663)
(100.238 -1.1409 -0.235786)
(100.231 -1.13651 -0.236257)
(100.225 -1.1337 -0.237042)
(100.22 -1.13179 -0.238088)
(100.217 -1.13022 -0.239329)
(100.215 -1.12852 -0.240708)
(100.214 -1.12635 -0.242179)
(100.216 -1.12347 -0.243724)
(100.22 -1.11971 -0.245356)
(100.226 -1.11506 -0.247131)
(100.237 -1.10983 -0.249148)
(100.005 0.0216069 -2.08887e-05)
(100.024 0.0445488 -0.000180682)
(100.061 0.0713618 -0.000594849)
(100.117 0.104434 -0.00139094)
(100.199 0.146708 -0.00279871)
(100.316 0.200658 -0.00515759)
(100.48 0.267805 -0.00901397)
(100.707 0.345706 -0.015129)
(101.017 0.421473 -0.0245467)
(101.416 0.45583 -0.0384551)
(101.879 0.392698 -0.0579658)
(102.308 0.157116 -0.0836842)
(102.529 -0.261806 -0.113695)
(102.413 -0.690603 -0.143756)
(102.024 -0.935081 -0.171788)
(101.566 -0.99506 -0.194546)
(101.189 -0.966263 -0.210985)
(100.918 -0.911477 -0.221747)
(100.726 -0.854382 -0.228431)
(100.585 -0.801841 -0.232331)
(100.482 -0.756743 -0.234377)
(100.406 -0.722176 -0.235257)
(100.351 -0.697938 -0.235469)
(100.31 -0.681808 -0.235226)
(100.279 -0.671957 -0.234764)
(100.256 -0.666976 -0.234305)
(100.239 -0.665459 -0.23401)
(100.225 -0.66625 -0.233962)
(100.214 -0.668522 -0.234182)
(100.205 -0.671671 -0.234651)
(100.199 -0.675208 -0.235322)
(100.194 -0.678762 -0.23613)
(100.191 -0.682048 -0.237)
(100.189 -0.684895 -0.237865)
(100.188 -0.686888 -0.238705)
(100.189 -0.688067 -0.239474)
(100.193 -0.688396 -0.240167)
(100.198 -0.68784 -0.240838)
(100.207 -0.686441 -0.241598)
(100.225 -0.684221 -0.242698)
(100.006 0.00739093 -0.00017458)
(100.027 0.0151957 -0.000453953)
(100.066 0.0243482 -0.00108498)
(100.128 0.0355013 -0.00206254)
(100.216 0.0497066 -0.00380728)
(100.34 0.0675349 -0.00659371)
(100.51 0.0890083 -0.0110057)
(100.737 0.112657 -0.0176932)
(101.027 0.133366 -0.0277063)
(101.376 0.138498 -0.0417537)
(101.747 0.108142 -0.0605609)
(102.067 0.0217151 -0.0842356)
(102.23 -0.117512 -0.1115)
(102.162 -0.262063 -0.139624)
(101.888 -0.354251 -0.165185)
(101.527 -0.383123 -0.186378)
(101.194 -0.377378 -0.202312)
(100.934 -0.361466 -0.213019)
(100.742 -0.344563 -0.21977)
(100.598 -0.328971 -0.22373)
(100.49 -0.315485 -0.225841)
(100.41 -0.304656 -0.226779)
(100.352 -0.295971 -0.227044)
(100.309 -0.28869 -0.226896)
(100.278 -0.282176 -0.226702)
(100.255 -0.276189 -0.226641)
(100.237 -0.270593 -0.226796)
(100.223 -0.265303 -0.227197)
(100.211 -0.260296 -0.227835)
(100.202 -0.255572 -0.228673)
(100.195 -0.251124 -0.229654)
(100.19 -0.246929 -0.230709)
(100.185 -0.242966 -0.231761)
(100.183 -0.239245 -0.232704)
(100.182 -0.235522 -0.233702)
(100.183 -0.231889 -0.234608)
(100.185 -0.22836 -0.235398)
(100.19 -0.224947 -0.236132)
(100.197 -0.22178 -0.236927)
(100.21 -0.219382 -0.238055)
(99.9936 0.00550431 0.00797)
(99.9719 0.0110491 0.0167127)
(99.9316 0.0167828 0.0267728)
(99.8721 0.022763 0.0391767)
(99.7919 0.0287367 0.0549208)
(99.6891 0.0339318 0.0751739)
(99.5627 0.0366782 0.100965)
(99.4155 0.0340402 0.13367)
(99.2563 0.0213654 0.17455)
(99.1042 -0.00762697 0.223895)
(98.9914 -0.0583061 0.280944)
(98.9575 -0.128933 0.34332)
(99.0268 -0.200131 0.407278)
(99.1889 -0.25322 0.467538)
(99.4006 -0.278756 0.519652)
(99.6148 -0.286593 0.56213)
(99.8062 -0.28529 0.594925)
(99.9683 -0.279108 0.6193)
(100.102 -0.270603 0.63674)
(100.21 -0.26176 0.648946)
(100.295 -0.253521 0.657122)
(100.361 -0.246232 0.662739)
(100.411 -0.239995 0.667109)
(100.448 -0.235261 0.670592)
(100.476 -0.23203 0.673601)
(100.498 -0.230053 0.676633)
(100.513 -0.229192 0.679595)
(100.524 -0.22927 0.682608)
(100.532 -0.23003 0.685863)
(100.537 -0.231242 0.68927)
(100.54 -0.23273 0.692634)
(100.542 -0.234368 0.695724)
(100.544 -0.236038 0.698563)
(100.545 -0.237668 0.701028)
(100.547 -0.239224 0.702943)
(100.55 -0.240717 0.704152)
(100.554 -0.242169 0.704476)
(100.56 -0.243583 0.704001)
(100.568 -0.245016 0.702677)
(100.584 -0.246627 0.70045)
(99.9938 0.0163615 0.00780007)
(99.9725 0.0329196 0.016276)
(99.9329 0.0502564 0.0261736)
(99.8738 0.0686515 0.0384072)
(99.7928 0.0875522 0.0539868)
(99.6867 0.104948 0.0741321)
(99.5524 0.116236 0.1002)
(99.3896 0.112779 0.133752)
(99.204 0.0801464 0.176245)
(99.0139 -0.00218287 0.228465)
(98.8586 -0.15085 0.289936)
(98.8041 -0.358089 0.357971)
(98.8923 -0.575181 0.428182)
(99.0985 -0.730974 0.493592)
(99.3524 -0.806309 0.5486)
(99.5925 -0.833175 0.592229)
(99.797 -0.832939 0.625464)
(99.9654 -0.817791 0.649948)
(100.101 -0.795966 0.667428)
(100.208 -0.772291 0.679543)
(100.291 -0.749529 0.687726)
(100.355 -0.730042 0.693772)
(100.403 -0.714346 0.698617)
(100.439 -0.702281 0.702448)
(100.466 -0.692489 0.705562)
(100.486 -0.684385 0.708427)
(100.501 -0.678309 0.711327)
(100.512 -0.674428 0.714413)
(100.52 -0.672458 0.717715)
(100.525 -0.672021 0.721131)
(100.528 -0.672787 0.724502)
(100.53 -0.674462 0.727662)
(100.531 -0.676751 0.730499)
(100.532 -0.679469 0.732881)
(100.533 -0.682518 0.734668)
(100.535 -0.685859 0.735732)
(100.537 -0.689523 0.735963)
(100.542 -0.693504 0.735316)
(100.549 -0.697779 0.733753)
(100.562 -0.702272 0.731325)
(99.9942 0.0267784 0.00741755)
(99.9739 0.0541059 0.0154659)
(99.9359 0.083289 0.0249216)
(99.8781 0.115198 0.0366875)
(99.7969 0.149626 0.0518246)
(99.6863 0.184368 0.0716863)
(99.5388 0.213328 0.0979437)
(99.3474 0.223184 0.132597)
(99.1092 0.187784 0.17778)
(98.8412 0.05954 0.235226)
(98.6018 -0.267395 0.305216)
(98.4971 -0.717536 0.384534)
(98.6197 -1.12155 0.46419)
(98.9169 -1.34946 0.536225)
(99.2484 -1.44018 0.593963)
(99.534 -1.46732 0.638211)
(99.7642 -1.45347 0.67131)
(99.9452 -1.41916 0.695314)
(100.085 -1.37757 0.712201)
(100.191 -1.33425 0.723645)
(100.271 -1.29302 0.730643)
(100.33 -1.2548 0.736252)
(100.374 -1.23191 0.741512)
(100.408 -1.22153 0.746033)
(100.436 -1.21563 0.749655)
(100.457 -1.2111 0.75265)
(100.472 -1.20803 0.755338)
(100.481 -1.20668 0.757889)
(100.487 -1.20683 0.760341)
(100.49 -1.2082 0.762649)
(100.49 -1.21047 0.764714)
(100.489 -1.21342 0.766428)
(100.487 -1.21683 0.767694)
(100.484 -1.22053 0.768417)
(100.48 -1.22447 0.768511)
(100.476 -1.22869 0.767884)
(100.473 -1.23333 0.766443)
(100.471 -1.23846 0.764115)
(100.472 -1.24406 0.760918)
(100.478 -1.24958 0.757165)
(99.9948 0.0363063 0.00682141)
(99.9766 0.0737514 0.0142181)
(99.9421 0.114684 0.0229362)
(99.8884 0.16115 0.033866)
(99.8101 0.214364 0.048095)
(99.6983 0.273854 0.0670694)
(99.5388 0.335472 0.0927402)
(99.3114 0.386822 0.127635)
(98.9879 0.398524 0.174878)
(98.5056 0.199802 0.237992)
(98.252 0.0172346 0.269441)
(97.9188 -0.638476 0.341663)
(97.9919 -1.42683 0.417279)
(98.4661 -1.92844 0.485499)
(98.9479 -2.0664 0.537898)
(99.3177 -2.09738 0.576988)
(99.6146 -2.067 0.606705)
(99.8389 -2.00346 0.628505)
(100.005 -1.93199 0.644045)
(100.129 -1.86557 0.655303)
(100.286 -1.89993 0.771471)
(100.332 -1.82122 0.777842)
(100.352 -1.76755 0.782417)
(100.368 -1.73815 0.786358)
(100.385 -1.72154 0.790406)
(100.396 -1.71331 0.794567)
(100.398 -1.71155 0.798612)
(100.393 -1.71439 0.802346)
(100.381 -1.72017 0.805607)
(100.364 -1.72768 0.808235)
(100.343 -1.73601 0.810094)
(100.319 -1.74453 0.811072)
(100.291 -1.75279 0.811094)
(100.262 -1.76058 0.810105)
(100.232 -1.76789 0.808067)
(100.201 -1.77493 0.804926)
(100.17 -1.78203 0.8006)
(100.141 -1.78964 0.794981)
(100.115 -1.798 0.788019)
(100.089 -1.80627 0.780018)
(99.9958 0.0442011 0.00600688)
(99.9811 0.0902959 0.0125164)
(99.9528 0.141917 0.0201762)
(99.9076 0.20281 0.0298027)
(99.8393 0.27672 0.0424192)
(99.7368 0.367261 0.059413)
(99.5808 0.477056 0.0827367)
(99.3391 0.604483 0.115044)
(98.9085 0.735701 0.159807)
(98.5691 0.736286 0.185041)
(97.774 0.343399 0.248454)
(96.9919 -0.716679 0.328742)
(97.1034 -2.33513 0.416111)
(98.2207 -2.89974 0.48488)
(98.9038 -2.88887 0.524766)
(99.3274 -2.84997 0.551985)
(99.6652 -2.74717 0.575236)
(99.8935 -2.6262 0.593721)
(100.045 -2.51354 0.607896)
(100.145 -2.423 0.619698)
(100.224 -2.3615 0.632374)
(100.169 -2.52299 0.714403)
(100.053 -2.51997 0.719333)
(99.9409 -2.49753 0.719127)
(99.8384 -2.46919 0.717508)
(99.7367 -2.4449 0.715402)
(99.6336 -2.42676 0.712581)
(99.5306 -2.41412 0.708887)
(99.4289 -2.40608 0.704311)
(99.329 -2.40172 0.698885)
(99.2317 -2.40002 0.692654)
(99.1376 -2.39993 0.685673)
(99.047 -2.40055 0.677991)
(98.9604 -2.40127 0.669654)
(98.8782 -2.40178 0.660679)
(98.8004 -2.40207 0.651027)
(98.7275 -2.40251 0.640535)
(98.6604 -2.40389 0.628915)
(98.6009 -2.40767 0.615822)
(98.545 -2.41669 0.601354)
(99.9973 0.0495906 0.00496981)
(99.9876 0.101769 0.0103783)
(99.9686 0.161459 0.0166725)
(99.9376 0.234226 0.0245106)
(99.8891 0.326816 0.0347161)
(99.8128 0.448343 0.0483878)
(99.6896 0.612058 0.0670466)
(99.483 0.83753 0.0927582)
(99.0694 1.15485 0.128221)
(98.6625 1.3105 0.149374)
(97.7152 1.44031 0.178638)
(95.6334 0.653451 0.234206)
(94.4909 -3.46765 0.328906)
(98.3654 -4.64348 0.409019)
(98.8425 -3.58703 0.454753)
(99.2954 -3.51312 0.457811)
(99.6785 -3.29402 0.472732)
(99.8696 -3.04307 0.50017)
(99.954 -2.83973 0.531184)
(99.9648 -2.67309 0.55966)
(99.2763 -2.44847 0.452899)
(95.455 -2.20511 0.284531)
(95.4424 -2.35324 0.304748)
(95.4507 -2.44966 0.315668)
(95.456 -2.51712 0.322535)
(95.464 -2.57107 0.327629)
(95.4817 -2.61643 0.331365)
(95.51 -2.65485 0.333821)
(95.5472 -2.68736 0.335121)
(95.5908 -2.7145 0.335365)
(95.6388 -2.73636 0.334595)
(95.6895 -2.75287 0.332822)
(95.7416 -2.76406 0.329969)
(95.7942 -2.7702 0.325956)
(95.8469 -2.77183 0.320681)
(95.8995 -2.7698 0.31398)
(95.952 -2.7652 0.305558)
(96.0044 -2.75942 0.294888)
(96.0564 -2.75449 0.281033)
(96.119 -2.75405 0.262236)
(99.9991 0.0515224 0.00396641)
(99.9957 0.106118 0.00802879)
(99.9888 0.169531 0.0126571)
(99.977 0.248564 0.0182896)
(99.9576 0.352107 0.0254005)
(99.9258 0.493488 0.0345735)
(99.8732 0.694257 0.0465213)
(99.7847 0.992146 0.061946)
(99.6108 1.45897 0.0811894)
(99.3408 1.85169 0.0930534)
(98.6145 2.77014 0.107461)
(95.447 5.6963 0.14207)
(77.3935 -4.6781 0.277375)
(55.3383 -5.74167 0.0967439)
(71.409 -3.85629 -0.81437)
(73.1414 -2.50482 -0.934021)
(74.1384 -1.72552 -0.9137)
(75.4471 -1.2983 -0.835531)
(77.3673 -1.17765 -0.738594)
(89.4123 -2.79317 -0.475263)
(95.8095 -3.17784 -0.575043)
(96.0651 -3.10347 -0.573866)
(96.3162 -3.05673 -0.566854)
(96.5247 -3.02646 -0.558089)
(96.7008 -3.00501 -0.548045)
(96.8567 -2.98894 -0.536711)
(96.9973 -2.97639 -0.524267)
(97.1244 -2.96599 -0.510928)
(97.2393 -2.95668 -0.49693)
(97.3434 -2.9476 -0.482598)
(97.438 -2.93815 -0.468347)
(97.5242 -2.92789 -0.45464)
(97.6033 -2.91661 -0.441968)
(97.6761 -2.90426 -0.430799)
(97.7438 -2.8909 -0.421591)
(97.8073 -2.87667 -0.414865)
(97.8674 -2.86157 -0.411253)
(97.9245 -2.84519 -0.411659)
(97.9928 -2.82576 -0.417308)
(100.001 0.0494393 0.00278573)
(100.004 0.102032 0.00551326)
(100.011 0.163592 0.00842583)
(100.02 0.241023 0.0116931)
(100.034 0.343417 0.0154058)
(100.055 0.48418 0.0195505)
(100.088 0.684342 0.0238547)
(100.147 0.979063 0.0274458)
(100.285 1.42966 0.0280993)
(100.329 1.83483 0.0280874)
(100.589 2.80987 0.0217963)
(102.355 5.33708 0.00485142)
(110.94 4.12863 0.0389778)
(108.932 -6.41603 -0.176844)
(102.79 -6.5255 -0.308509)
(101.154 -4.76795 -0.389271)
(100.71 -3.77446 -0.445145)
(100.547 -3.22275 -0.484941)
(100.475 -2.90869 -0.510252)
(100.415 -2.73983 -0.524575)
(100.292 -2.60731 -0.566369)
(100.316 -2.2867 -0.703278)
(100.298 -2.19448 -0.704549)
(100.283 -2.14364 -0.700116)
(100.268 -2.11851 -0.695267)
(100.253 -2.10579 -0.690993)
(100.239 -2.10035 -0.68708)
(100.227 -2.10005 -0.68351)
(100.217 -2.10317 -0.680355)
(100.209 -2.10817 -0.677631)
(100.204 -2.1139 -0.675343)
(100.2 -2.11952 -0.673507)
(100.198 -2.12451 -0.672158)
(100.198 -2.12852 -0.671326)
(100.199 -2.13135 -0.671122)
(100.201 -2.13286 -0.671711)
(100.204 -2.13285 -0.673378)
(100.208 -2.13093 -0.676514)
(100.214 -2.12625 -0.681559)
(100.228 -2.11698 -0.688477)
(100.003 0.0433033 0.00157505)
(100.013 0.0894429 0.00305906)
(100.031 0.143475 0.00436414)
(100.061 0.211341 0.00538861)
(100.104 0.300492 0.00588443)
(100.17 0.420939 0.00531786)
(100.271 0.586645 0.00263677)
(100.433 0.816762 -0.00412035)
(100.741 1.13539 -0.0185884)
(100.96 1.37176 -0.0281794)
(101.793 1.82526 -0.0611806)
(103.385 1.73709 -0.123055)
(105.152 -0.234692 -0.21448)
(104.708 -2.78725 -0.326001)
(102.949 -3.51773 -0.420178)
(101.749 -3.3073 -0.491604)
(101.129 -2.96098 -0.540841)
(100.801 -2.66645 -0.571813)
(100.614 -2.44458 -0.590584)
(100.492 -2.27874 -0.60205)
(100.402 -2.13943 -0.609546)
(100.307 -1.84133 -0.752475)
(100.279 -1.80285 -0.748659)
(100.259 -1.77868 -0.743401)
(100.246 -1.76529 -0.738524)
(100.236 -1.75777 -0.734371)
(100.228 -1.75342 -0.730854)
(100.222 -1.75107 -0.72793)
(100.216 -1.74987 -0.725545)
(100.212 -1.74905 -0.72359)
(100.208 -1.74798 -0.721948)
(100.206 -1.74625 -0.720524)
(100.204 -1.74355 -0.719274)
(100.202 -1.7397 -0.718183)
(100.202 -1.73455 -0.717336)
(100.204 -1.72802 -0.716888)
(100.206 -1.72003 -0.717088)
(100.211 -1.71043 -0.718271)
(100.218 -1.69921 -0.720816)
(100.235 -1.68703 -0.725013)
(100.004 0.0335819 0.00065448)
(100.019 0.0693572 0.00106441)
(100.048 0.111132 0.000984127)
(100.093 0.163245 0.000131027)
(100.159 0.230615 -0.00200063)
(100.256 0.319059 -0.00628809)
(100.398 0.434782 -0.014199)
(100.61 0.582194 -0.0281409)
(100.935 0.757554 -0.0519718)
(101.407 0.840724 -0.090945)
(102.03 0.746757 -0.150324)
(102.692 0.230701 -0.234563)
(103.044 -0.734265 -0.33729)
(102.801 -1.55192 -0.449139)
(102.171 -1.85614 -0.546297)
(101.554 -1.86049 -0.618191)
(101.12 -1.77392 -0.665807)
(100.841 -1.66835 -0.695196)
(100.657 -1.56731 -0.712518)
(100.529 -1.47682 -0.721867)
(100.442 -1.39749 -0.725645)
(100.386 -1.3257 -0.725183)
(100.348 -1.27017 -0.723605)
(100.321 -1.22696 -0.721836)
(100.302 -1.1942 -0.720079)
(100.287 -1.17009 -0.718592)
(100.275 -1.15268 -0.717625)
(100.264 -1.14042 -0.717293)
(100.255 -1.13208 -0.717582)
(100.247 -1.12658 -0.718399)
(100.239 -1.12301 -0.71962)
(100.233 -1.12059 -0.721112)
(100.227 -1.11874 -0.722765)
(100.223 -1.11698 -0.724487)
(100.219 -1.11494 -0.726261)
(100.218 -1.11234 -0.728127)
(100.217 -1.10894 -0.730203)
(100.22 -1.10458 -0.732679)
(100.224 -1.09927 -0.735788)
(100.233 -1.09338 -0.739655)
(100.005 0.0212017 -4.72277e-05)
(100.024 0.0437411 -0.000433411)
(100.059 0.0700137 -0.00149599)
(100.114 0.102473 -0.00364619)
(100.194 0.143778 -0.00758442)
(100.308 0.196484 -0.0143002)
(100.467 0.262071 -0.0253571)
(100.689 0.3382 -0.0430282)
(100.989 0.412145 -0.0704142)
(101.378 0.445634 -0.111251)
(101.829 0.383366 -0.169154)
(102.247 0.151621 -0.245837)
(102.463 -0.26093 -0.337349)
(102.349 -0.681255 -0.432385)
(101.967 -0.918043 -0.51773)
(101.52 -0.974044 -0.583902)
(101.152 -0.943774 -0.629948)
(100.889 -0.888838 -0.659831)
(100.701 -0.831969 -0.678277)
(100.565 -0.779662 -0.688825)
(100.465 -0.734673 -0.6939)
(100.393 -0.699983 -0.695363)
(100.341 -0.676026 -0.695153)
(100.304 -0.660454 -0.694164)
(100.277 -0.651394 -0.692866)
(100.258 -0.647359 -0.691667)
(100.243 -0.64688 -0.69087)
(100.232 -0.648713 -0.690599)
(100.223 -0.651955 -0.690838)
(100.216 -0.655937 -0.691488)
(100.21 -0.660117 -0.692413)
(100.205 -0.66409 -0.693469)
(100.202 -0.667542 -0.694528)
(100.199 -0.670264 -0.695502)
(100.197 -0.672058 -0.696401)
(100.196 -0.672857 -0.697227)
(100.198 -0.672614 -0.698071)
(100.201 -0.671341 -0.699121)
(100.207 -0.669134 -0.700653)
(100.221 -0.666199 -0.703032)
(100.006 0.00723608 -0.00043173)
(100.026 0.0149228 -0.00121041)
(100.065 0.0238559 -0.00282948)
(100.124 0.0348212 -0.00559644)
(100.211 0.0486491 -0.0104828)
(100.331 0.0660303 -0.0183601)
(100.496 0.0869937 -0.0308049)
(100.716 0.110115 -0.0499501)
(100.998 0.130258 -0.0786591)
(101.337 0.135255 -0.119589)
(101.698 0.1056 -0.175119)
(102.009 0.0212422 -0.245594)
(102.168 -0.114549 -0.327273)
(102.101 -0.25547 -0.411604)
(101.832 -0.344419 -0.488389)
(101.478 -0.371834 -0.550424)
(101.152 -0.36569 -0.595348)
(100.898 -0.349725 -0.625314)
(100.711 -0.332879 -0.644181)
(100.571 -0.317329 -0.655199)
(100.467 -0.303886 -0.660843)
(100.392 -0.293092 -0.662988)
(100.339 -0.28444 -0.663194)
(100.301 -0.277239 -0.662516)
(100.275 -0.270983 -0.661776)
(100.256 -0.265389 -0.661353)
(100.242 -0.260243 -0.66143)
(100.231 -0.255408 -0.662078)
(100.223 -0.250831 -0.663269)
(100.216 -0.246491 -0.664897)
(100.21 -0.242372 -0.666813)
(100.204 -0.238445 -0.668855)
(100.199 -0.234686 -0.670865)
(100.195 -0.231063 -0.672684)
(100.192 -0.227513 -0.674495)
(100.191 -0.224029 -0.67614)
(100.191 -0.220603 -0.677647)
(100.193 -0.217253 -0.679183)
(100.197 -0.214115 -0.681003)
(100.206 -0.211732 -0.683446)
(99.994 0.00538525 0.0125093)
(99.9737 0.0107922 0.0261069)
(99.9362 0.0163986 0.0420031)
(99.8809 0.0222529 0.0616225)
(99.8065 0.0281235 0.086534)
(99.7112 0.0333001 0.118614)
(99.5942 0.0362462 0.159884)
(99.458 0.0341877 0.212596)
(99.3109 0.0227064 0.278777)
(99.1708 -0.00411593 0.359335)
(99.0677 -0.0516403 0.453371)
(99.0385 -0.117634 0.556863)
(99.1062 -0.184534 0.662408)
(99.2613 -0.234242 0.761693)
(99.4633 -0.257935 0.847423)
(99.6678 -0.26498 0.917049)
(99.8509 -0.263336 0.971061)
(100.006 -0.257012 1.01149)
(100.134 -0.248431 1.04075)
(100.237 -0.239593 1.06128)
(100.317 -0.231374 1.07528)
(100.379 -0.223886 1.08498)
(100.424 -0.217291 1.09237)
(100.457 -0.212153 1.09866)
(100.481 -0.208543 1.10442)
(100.498 -0.206177 1.10995)
(100.509 -0.204851 1.11538)
(100.517 -0.204419 1.12089)
(100.521 -0.204707 1.12658)
(100.524 -0.205521 1.13242)
(100.525 -0.206695 1.13826)
(100.526 -0.208098 1.14393)
(100.528 -0.209616 1.14928)
(100.53 -0.211161 1.1541)
(100.532 -0.212666 1.15817)
(100.536 -0.214114 1.16127)
(100.541 -0.215509 1.1632)
(100.548 -0.216862 1.16378)
(100.558 -0.218224 1.16277)
(100.574 -0.219735 1.15983)
(99.9942 0.0159924 0.0122223)
(99.9744 0.0321407 0.0255025)
(99.9375 0.0490606 0.0410851)
(99.8825 0.0670281 0.0604039)
(99.8075 0.0855495 0.0850915)
(99.709 0.102777 0.117175)
(99.5846 0.114433 0.159004)
(99.4337 0.112353 0.213286)
(99.2617 0.08281 0.282693)
(99.0853 0.00622947 0.369068)