/*--------------------------------*- C++ -*----------------------------------*\
| =========                 |                                                 |
| \\      /  F ield         | OpenFOAM: The Open Source CFD Toolbox           |
|  \\    /   O peration     | Version:  2306                                  |
|   \\  /    A nd           | Website:  www.openfoam.com                      |
|    \\/     M anipulation  |                                                 |
\*---------------------------------------------------------------------------*/
FoamFile
{
    version     2.0;
    format      ascii;
    arch        "LSB;label=32;scalar=64";
    class       volVectorField;
    location    "1.6";
    object      Force;
}
// * * * * * * * * * * * * * * * * * * * * * * * * * * * * * * * * * * * * * //

dimensions      [1 1 -2 0 0 0 0];

internalField   uniform (0 0 0);

boundaryField
{
    walls
    {
        type            calculated;
        value           uniform (0 0 0);
    }
    inlet
    {
        type            calculated;
        value           uniform (0 0 0);
    }
    outlet
    {
        type            calculated;
        value           uniform (0 0 0);
    }
    NASA
    {
        type            calculated;
        value           nonuniform List<vector> 
14179
(
(-0.0145332 -0.133647 2.70037e-06)
(-0.0129876 -0.107356 1.65124e-06)
(-0.0656671 -0.531324 0.000254375)
(-0.100362 -0.807228 0.000868428)
(-0.0655974 -0.531099 0.000134508)
(-0.109315 -0.879113 0.000995878)
(0.190935 0.829088 -0.000126906)
(0.090913 0.456327 -3.50704e-05)
(0.652025 3.19735 0.00447372)
(0.0951065 0.477398 -3.52071e-05)
(-0.000267433 -0.00608519 1.09375e-06)
(-0.0177956 -0.145521 0.000191491)
(0.130835 0.653378 -0.000646074)
(-0.0354275 -0.322202 0.000543759)
(0.0620061 0.309477 -0.000288037)
(1.37335 0.926388 0.00280127)
(1.39009 0.921121 -0.000201951)
(0.0225178 0.12634 -1.98948e-05)
(0.16189 0.960331 -7.29731e-05)
(1.27136 0.842705 -0.000410715)
(-0.0171189 -0.239501 -1.49406e-05)
(-0.0212939 -0.19799 -0.000140834)
(-0.0195683 -0.271669 -0.000257579)
(-0.00866626 -0.0631122 1.0095e-06)
(-0.0131673 -0.108902 9.35623e-06)
(-0.00935102 -0.0681016 9.92264e-06)
(-0.0128974 -0.106231 0.000199296)
(-0.0151009 -0.108228 0.000209813)
(-0.0132458 -0.120987 0.000229144)
(-0.0154966 -0.212708 0.00340317)
(0.046711 0.203982 3.36555e-05)
(0.0526208 0.248105 8.55583e-06)
(0.0565832 0.266792 -5.8088e-05)
(0.0460776 0.200717 -1.61314e-05)
(0.0641208 0.235098 7.11652e-06)
(0.0658701 0.241569 2.39212e-05)
(0.0322427 0.116926 3.95142e-06)
(0.0342047 0.124077 1.28555e-05)
(-0.00205997 -0.00984991 0.000133089)
(-0.0129706 -0.0631192 0.000576546)
(0.170708 0.623424 -0.000327538)
(0.100002 0.360529 0.000164668)
(0.103774 0.520902 -3.09633e-05)
(-0.00597848 -0.0420224 2.24383e-06)
(-0.00543122 -0.0381815 -5.8184e-06)
(0.165678 0.832248 -4.68296e-05)
(-0.00980059 -0.0678019 0.000165274)
(0.0973363 0.485903 -3.79976e-05)
(0.0905152 0.452255 -0.000148569)
(0.107275 0.438276 -0.000314483)
(0.0839371 0.312019 -1.48961e-05)
(0.0835878 0.310705 -2.37425e-05)
(-0.0585222 1.42979 -8.99311e-05)
(1.38477 0.9206 -0.000712669)
(-0.0476362 1.16893 6.83767e-05)
(-0.00246427 1.23512 -6.67827e-05)
(0.0732098 1.10638 4.39261e-05)
(0.0650014 0.982013 -0.00012191)
(-0.00249428 1.14722 -3.09269e-05)
(0.0938894 0.368826 -1.19881e-05)
(0.165532 0.981867 -3.04281e-05)
(0.00757134 0.0275308 7.08785e-05)
(-0.0228074 0.566311 -0.000118286)
(0.919448 0.627346 0.077498)
(-0.000735743 0.532715 -0.000405227)
(0.026947 0.409489 -0.000189267)
(0.127521 0.746344 0.00783294)
(-0.0146632 -0.1467 4.89756e-06)
(-0.0144762 -0.133205 4.17847e-06)
(-0.0986996 -0.793973 0.000851332)
(-0.0114536 -0.0908246 2.06238e-06)
(-0.0129671 -0.107193 3.22825e-06)
(1.31799 0.872592 -0.00107126)
(1.27002 0.841097 -0.000819203)
(0.34662 2.05496 -0.00261966)
(0.261358 1.54402 -0.00163471)
(-0.110697 -0.891333 -0.000475155)
(-0.0566386 -0.352488 0.000430505)
(-0.0557393 -0.349024 0.000413048)
(-0.0428688 -0.251466 0.000329827)
(0.157317 0.678792 -0.000810623)
(0.176804 0.764403 -0.000883293)
(0.757843 1.30114 -5.68513e-05)
(0.758464 1.30022 -0.000331202)
(0.0922545 0.46303 -2.1724e-05)
(0.0841738 0.404344 -2.23465e-05)
(-0.000285184 -0.00324423 -1.03898e-06)
(0.0014499 0.00731923 1.11587e-08)
(0.00148813 0.00753887 -1.68995e-06)
(-0.000275408 -0.00317627 1.9434e-07)
(0.0978055 0.491013 -7.19942e-07)
(0.0898904 0.463586 -2.1684e-05)
(-0.0200175 -0.163602 0.000215818)
(-0.013486 -0.0965947 0.000144653)
(-0.0203228 -0.145123 0.000190285)
(-0.0123152 -0.0848897 0.000136773)
(-0.0181045 -0.124158 0.000120231)
(0.0858308 0.428263 -0.000528927)
(-0.01998 -0.181773 0.000223375)
(-0.024537 -0.337497 0.00070694)
(-0.0207333 -0.291292 -0.000222194)
(0.080513 0.402097 -0.000467593)
(1.37087 0.920631 -0.00269424)
(0.0988313 0.582547 -1.84329e-05)
(0.106881 0.597621 -7.05546e-06)
(0.108392 0.605886 -1.57981e-05)
(0.195583 1.36118 -2.10351e-05)
(0.106476 0.631427 -1.507e-05)
(0.162216 0.962154 -2.09178e-05)
(0.021125 0.019955 1.91626e-05)
(0.36121 -0.133106 0.0036255)
(0.376544 -0.149283 0.00177675)
(0.0182286 0.0175368 -4.75296e-05)
(-0.00683106 -0.0292759 0.000105916)
(0.0212879 0.0784604 -3.48301e-05)
(0.00211949 0.0071952 6.17583e-05)
(0.0213918 0.0860478 5.3842e-05)
(-0.00960035 -0.0428335 6.81006e-05)
(-0.00199205 -0.0110929 9.26388e-05)
(0.00407125 0.0169298 2.87432e-05)
(-0.0182119 -0.0880629 0.000107316)
(-0.00106601 0.729862 -0.000696161)
(0.0407094 0.608058 -0.000634017)
(-0.00155554 0.97814 -0.00097945)
(0.0317364 0.480539 -0.000822839)
(-0.0346101 0.86519 -0.00103354)
(1.09819 0.73874 -0.000696454)
(-0.0468973 1.16005 -0.00114306)
(0.109811 0.649811 -0.00169601)
(0.157174 0.615469 -0.000931148)
(0.117961 0.461301 -0.000450019)
(0.108911 0.397395 -0.000364321)
(0.154373 0.563982 -0.000536581)
(0.0634999 0.229108 -0.000207526)
(0.0868393 0.313848 -0.000365262)
(-0.0132256 -0.148994 -3.38062e-06)
(-0.0169998 -0.237521 4.00758e-06)
(-0.0105055 -0.080918 1.9961e-06)
(-0.00851189 -0.0619923 1.08891e-06)
(0.000336056 0.000383646 0.529454)
(-0.0129417 -0.101829 0.000195215)
(0.0003093 0.000368241 0.503376)
(-0.0143876 -0.109627 0.000217478)
(0.000596984 0.000563822 0.57317)
(-0.0129633 -0.129427 0.000312225)
(0.000821899 0.00101157 0.574408)
(-0.0120637 -0.138917 0.00111772)
(0.052413 0.247116 -1.66486e-05)
(0.0390718 0.177696 -4.40133e-06)
(0.039385 0.179139 -1.1986e-05)
(0.0463005 0.201645 -8.89891e-06)
(0.0455877 0.200805 -6.68049e-06)
(0.0458253 0.201859 -1.20885e-05)
(0.0640734 0.234893 1.45242e-05)
(0.0240043 0.119389 -8.36061e-06)
(0.0214695 0.108928 -7.33815e-06)
(0.0327273 0.118675 1.09015e-05)
(0.0278071 0.0977871 2.90685e-06)
(-0.00647589 -0.0296393 0.00020485)
(-0.00549003 -0.0261453 0.000235096)
(0.000268189 0.000278178 0.320667)
(0.000273861 0.000253979 0.314028)
(0.000266535 0.000246393 0.309736)
(0.000286556 0.000268202 0.356855)
(0.0947268 0.322789 0.00039312)
(0.161296 0.563997 0.00403319)
(-3.60624e-05 0.000345969 0.337621)
(0.000203727 -5.7717e-05 0.3065)
(0.000120427 0.000107604 0.108409)
(0.0826375 0.290112 0.000156262)
(0.282285 0.655757 -1.035e-06)
(0.166449 0.586794 6.43989e-05)
(0.164774 0.580926 -1.91288e-05)
(0.0752091 0.351173 -1.60596e-05)
(0.0753189 0.351775 -2.71228e-05)
(0.129353 0.617791 -3.09611e-05)
(0.072932 0.324717 -2.3031e-05)
(0.07688 0.348846 -1.19929e-05)
(0.0775002 0.351664 -2.6944e-05)
(0.073544 0.327473 -6.04237e-06)
(-0.00476499 -0.0335256 -4.22915e-07)
(-0.0059026 -0.0414937 -4.12457e-07)
(0.147181 0.779571 -1.52326e-05)
(0.264938 0.456906 0.0112601)
(0.000617109 0.00242169 0.859513)
(0.000348176 0.00107355 0.410717)
(0.0484661 0.140969 0.000150049)
(-0.0118509 -0.0739212 0.000228725)
(-0.0118509 -0.0748029 0.000372495)
(0.000676724 0.00106511 0.67323)
(0.000208291 -3.14973e-05 0.309928)
(0.0963681 0.494642 0.000944016)
(0.000352278 -0.000126584 0.373342)
(0.140142 0.736585 0.00535252)
(0.000400031 0.000411452 0.345836)
(0.000257376 0.00026099 0.327432)
(-0.000487946 -8.17798e-05 0.350134)
(6.89289e-05 0.00019874 0.112498)
(0.0807036 0.385591 -0.000155275)
(0.103369 0.48024 0.000846509)
(0.000359883 6.47024e-07 0.205713)
(9.40067e-05 0.000303503 0.107899)
(0.169996 0.714436 0.00187948)
(0.0839612 0.312097 -1.38258e-05)
(0.0800236 0.306331 -1.93841e-05)
(0.095557 0.389539 -2.37715e-05)
(0.0670238 0.269943 -6.27606e-06)
(-0.789104 2.52287 -0.0193715)
(-0.049723 1.21833 -2.65792e-05)
(-0.154666 1.44594 0.000630217)
(0.0732875 1.106 -7.19676e-05)
(0.055949 1.19551 -5.49163e-05)
(-0.0024922 1.14069 -6.61619e-05)
(0.031942 1.20463 -4.76934e-05)
(0.108828 1.19405 -1.69164e-05)
(0.143943 1.85702 -7.04256e-05)
(0.14184 1.83017 -4.53668e-05)
(0.109619 1.20271 -6.00736e-05)
(0.121931 1.24503 -2.9484e-05)
(0.124994 1.16213 2.11888e-05)
(0.129443 1.2042 -4.91252e-05)
(0.11956 1.22 1.13412e-05)
(0.0661576 0.27407 5.99605e-06)
(0.0605448 0.240197 5.06217e-06)
(0.0943312 0.370575 1.37797e-05)
(0.119237 0.807444 -3.8253e-05)
(0.11568 0.728418 -1.8008e-05)
(-0.000596535 -0.000427813 0.563539)
(0.000560138 0.00172956 0.888411)
(0.00115161 0.00369858 0.000135806)
(4.23305e-05 0.00223454 0.735159)
(0.002171 0.0074332 0.000132251)
(0.000231412 0.00965228 0.273091)
(-0.0604091 0.579785 -0.000686065)
(0.00711907 -0.00407787 1.74418)
(0.000230689 0.000276332 0.30315)
(0.0141383 0.516747 -0.000447663)
(0.000622744 -0.000115824 0.244345)
(0.0232029 0.485564 -0.000285163)
(0.0613 0.5274 -0.000442999)
(0.0610594 0.517818 -0.000406234)
(0.000271461 0.000232532 0.243535)
(0.000295503 0.000253092 0.267865)
(0.0574475 0.530011 -0.000345247)
(0.0521917 0.52652 -5.88131e-05)
(0.0471914 0.516597 0.00125771)
(1.94319e-05 -0.000865233 0.22206)
(-0.01915 -0.105126 0.00109055)
(-5.2716e-05 0.000352911 0.499201)
(0.0917709 0.510322 -1.56214e-05)
(0.000263959 0.000248063 0.31889)
(0.000267308 0.000250578 0.320418)
(0.47743 -0.190198 -0.00393235)
(0.228707 0.216254 0.00241708)
(0.000171548 4.65261e-05 0.0814192)
(-0.0522748 -0.514382 0.000399416)
(-0.0685 -0.553596 0.00043562)
(-0.0554309 -0.544761 0.000510663)
(-0.0688645 -0.556491 0.000445459)
(-0.0748703 -0.604191 0.000573493)
(-0.0586989 -0.576284 0.000582704)
(-0.0825617 -0.665351 0.000681131)
(0.179611 0.77739 -0.000906583)
(0.449943 2.20329 -0.00238889)
(0.183111 0.792969 -0.000919119)
(0.429279 2.10153 -0.00229284)
(-0.065576 -0.530819 0.00015195)
(-0.0422919 -0.263768 0.000302274)
(-0.104641 -0.841338 0.000914591)
(-0.0480363 -0.299146 0.000345657)
(1.38634 0.918614 -0.000368745)
(1.39055 0.921409 -0.000191829)
(0.204422 0.887654 -0.000135044)
(0.601147 2.94985 -0.000815182)
(0.596936 2.92921 -0.000431601)
(0.229142 0.994864 -0.000235907)
(0.438391 2.59998 -0.00047972)
(0.453996 2.69115 -0.000851814)
(-0.000607297 -0.00706939 2.97213e-06)
(-0.000256945 -0.00551784 1.32438e-06)
(0.022593 0.127871 -3.47108e-05)
(0.02293 0.129262 -2.37794e-05)
(0.0482744 0.209425 -0.000108742)
(0.0352472 0.16 -8.13515e-05)
(0.0583012 0.2537 -0.000171111)
(0.0271322 0.12223 -2.72413e-05)
(-0.10847 -0.872912 0.00100025)
(-0.0691606 -0.502609 0.000572783)
(0.0163024 0.076229 4.02196e-05)
(-0.0114612 -0.0634418 0.000130934)
(0.0639857 0.233327 -0.000282724)
(0.071989 0.262476 -0.000294488)
(0.0347944 0.125426 -0.000153762)
(0.0402511 0.145089 -0.000163162)
(0.259352 1.17347 -0.000187347)
(0.154881 0.672057 -5.23825e-06)
(0.296662 1.4028 -0.000244322)
(0.148996 0.747844 -6.62788e-05)
(-0.0188505 -0.158684 0.000163046)
(-0.042904 -0.318132 0.000291196)
(-0.0069771 -0.0509829 -1.62551e-05)
(0.000575278 -0.00157524 1.33585e-07)
(-0.0183492 -0.125809 1.87509e-05)
(-0.0244038 -0.170741 6.84951e-05)
(0.0963605 0.393994 0.0001644)
(0.0833421 0.309803 -5.05712e-05)
(0.0834667 0.310261 -3.26936e-05)
(0.107787 0.44219 -0.000647256)
(0.164548 0.722744 -0.000140309)
(0.141272 0.651011 2.41691e-05)
(0.171891 0.755547 -0.000116372)
(0.18084 0.843343 2.23774e-05)
(-0.0025357 1.24822 -6.33552e-05)
(0.0498761 0.753478 -0.000150666)
(-0.002457 1.17557 -0.000191969)
(0.0565522 0.854366 -0.000119694)
(-0.0601541 1.47063 -7.99428e-05)
(1.38802 0.921068 -0.000368124)
(-0.0595305 1.45603 -0.00022629)
(0.493452 4.23213 -0.00139)
(0.0981184 0.38561 5.48703e-06)
(0.0814137 0.319953 -7.98049e-05)
(0.0648138 0.237739 -1.80009e-05)
(0.067509 0.24758 2.26611e-05)
(0.0568012 0.297741 -7.91583e-05)
(0.183339 0.904958 -0.00101315)
(0.0217333 0.121079 -5.66741e-05)
(0.0472551 0.253569 -3.8674e-05)
(0.856469 5.36101 0.00322229)
(0.413627 2.7643 0.000861889)
(0.0365789 0.13272 -3.59466e-06)
(0.0350592 0.127177 1.50345e-05)
(1.25293 0.832408 0.000630759)
(0.0900998 0.623832 -0.000709181)
(0.253596 0.237877 -0.000140661)
(0.496966 -0.206057 -1.58964e-06)
(0.240366 0.22617 -0.000214887)
(0.51662 -0.214573 -0.000266883)
(0.0651965 0.239065 1.84946e-05)
(0.0294943 0.103742 1.21376e-05)
(0.0337338 0.122355 1.40539e-05)
(0.282358 0.655917 -1.47821e-05)
(0.272355 0.799447 -4.73501e-05)
(0.000506518 0.00127759 0.724892)
(0.000184177 0.000428353 0.361235)
(0.000348071 -0.000127051 0.382707)
(-0.184232 1.70819 -0.00013665)
(-0.0548248 1.34097 -2.059e-05)
(1.3802 0.920936 -0.001424)
(0.0244764 0.0231249 2.296e-05)
(0.363044 -0.149204 0.000137726)
(0.372595 -0.151477 0.000601566)
(0.0240019 0.0226419 1.63741e-05)
(0.000271891 9.34193e-05 0.54182)
(0.000227899 3.05819e-05 0.379183)
(0.000229468 0.000215249 0.340582)
(0.000408768 0.000414733 0.363524)
(-0.0897003 -0.722235 0.000759186)
(1.35382 0.896396 -0.0011172)
(1.3396 0.886953 -0.00109834)
(1.31411 0.870039 -0.00106931)
(1.33842 0.886164 -0.00109674)
(0.398901 1.95171 -0.00213978)
(0.176288 0.762377 -0.000887998)
(0.178272 0.771457 -0.000899767)
(0.421474 2.06314 -0.00225791)
(0.270811 1.60017 -0.00172448)
(0.289707 1.71215 -0.00180943)
(-0.024491 -0.144752 0.00018054)
(-0.0312907 -0.184089 0.000228258)
(-0.0554951 -0.345227 0.000411097)
(-0.0500733 -0.311692 0.000362852)
(-0.040972 -0.240259 0.000305704)
(-0.0338342 -0.198805 0.000247677)
(0.253683 2.15826 -0.00222933)
(0.240619 2.04653 -0.00223281)
(0.0244892 0.0903702 -5.12376e-05)
(0.0229455 0.0926435 -7.52299e-05)
(0.0344036 0.13983 0.000101825)
(0.0324811 0.120101 -9.38863e-05)
(0.00139604 0.00498312 6.62193e-05)
(0.0256216 0.109386 4.85068e-05)
(0.0348239 0.150232 -3.43289e-05)
(0.0202303 0.0897033 4.9963e-05)
(0.0404044 0.149581 -0.00013324)
(0.0443984 0.180992 8.95339e-05)
(0.0347427 0.128517 -0.000105587)
(0.0425828 0.635761 -0.000649695)
(-0.00163986 1.02136 -0.00102224)
(-0.0018316 1.12591 -0.00112474)
(0.0469179 0.700734 -0.000720425)
(-0.0542758 1.34137 -0.00132906)
(1.30491 0.86391 -0.00105159)
(-0.0567611 1.40244 -0.00139277)
(-0.0487244 1.20495 -0.0011911)
(-0.0530745 1.31186 -0.00129914)
(1.30164 0.861736 -0.00104979)
(-0.00188572 1.15435 -0.00115332)
(0.0512478 0.766519 -0.00078116)
(-0.00199276 1.21078 -0.00121183)
(0.048238 0.720941 -0.00071273)
(0.227045 1.34095 -0.00139896)
(0.411423 2.56149 -0.00475432)
(0.237905 1.58446 -0.00169872)
(0.247571 1.46212 -0.0016165)
(0.405996 2.53204 -0.00266236)
(0.378242 2.35793 -0.00254593)
(0.195936 1.30319 -0.00224101)
(-0.0810267 -0.594794 0.000293669)
(-0.101612 -0.818191 0.0009179)
(-0.0665515 -0.441843 0.000517707)
(-0.0568017 -0.353972 0.000454334)
(-0.0799821 -0.536549 0.000539733)
(-0.0531266 -0.331953 0.000443666)
(-0.0244089 -0.135815 0.000209835)
(-0.0447185 -0.262723 0.000372187)
(0.0031353 0.00908068 0.000221323)
(-0.0473724 -0.279649 0.000368937)
(0.231914 1.04219 -0.0012363)
(0.180268 0.778915 -0.000876713)
(0.238824 1.12545 -0.00125429)
(0.17828 0.770581 -0.000878197)
(0.226165 1.0197 -0.00115399)
(0.242091 1.13959 -0.00160418)
(0.368799 1.80244 -0.00209518)
(0.105888 0.414009 -0.000417686)
(0.0897729 0.350922 -0.000386324)
(0.0958213 0.349534 -0.000338859)
(0.0757136 0.276063 -0.000299705)
(0.087203 0.340908 -0.000388982)
(0.0812411 0.317668 -0.000378499)
(0.0557437 0.201059 -0.000191847)
(0.0428052 0.1543 -0.000167302)
(0.121476 0.281572 -0.000233995)
(0.102862 0.238314 -0.000163266)
(-0.0206521 -0.156525 0.000214786)
(-0.0181723 -0.129978 0.000186663)
(0.0813926 0.416053 -0.00075388)
(0.0860242 0.42942 -0.000456178)
(0.124324 0.656332 -0.00134557)
(-0.01915 -0.18928 0.000165948)
(-0.0197697 -0.180262 0.000234187)
(-0.0170681 -0.187836 -7.77097e-05)
(-0.0210506 -0.292056 0.000297867)
(0.0773171 0.370103 -0.00054597)
(0.0818972 0.408864 -0.000422685)
(-0.00446928 -0.0188176 7.12556e-05)
(0.00553317 0.0212287 8.98926e-05)
(-0.00110301 -0.00501344 7.31467e-05)
(0.0123139 0.045079 2.44971e-05)
(0.0175999 0.646033 -0.000636134)
(-0.00128241 0.843428 -0.000863862)
(0.0268215 0.565743 -0.000630041)
(0.0360214 0.539214 -0.00064003)
(-0.104739 0.996135 -0.0024263)
(-0.0409102 1.01472 -0.00106932)
(1.21679 0.81262 0.00212405)
(-0.455329 1.48195 -0.00119173)
(-0.0447693 1.10834 -0.00111322)
(-0.139995 1.30314 -0.00124239)
(-0.0120336 -0.0628688 0.000129763)
(-0.0089056 -0.0458051 0.000104894)
(-0.0106863 -0.0547207 0.000120437)
(-0.0102333 -0.0536633 0.000115201)
(-0.0249049 -0.136709 8.25239e-05)
(0.00065525 0.000661567 0.385887)
(0.058399 0.392937 -0.000433439)
(0.0920798 0.637651 -0.000819514)
(0.0604355 0.406368 -0.00051294)
(0.126966 0.463427 -0.000406955)
(0.154608 0.564608 -0.000509647)
(0.0733242 0.264643 -0.000228247)
(0.0622761 0.217876 -0.000196073)
(0.0820083 0.287458 -0.000440808)
(0.0897736 0.324219 -0.000302899)
(0.448837 -0.187562 -0.00277566)
(0.216831 0.199125 0.00074183)
(0.264701 0.246214 5.42626e-05)
(0.521687 -0.217639 -0.00109455)
(0.221069 0.958524 -0.00105675)
(0.583956 2.86233 -0.00301294)
(0.22477 0.974716 -0.00102178)
(0.556781 2.72878 -0.00291845)
(-0.0655804 -0.530715 0.000211827)
(-0.000861724 -0.00859318 5.89108e-06)
(-0.000697977 -0.00758501 4.08305e-06)
(0.240549 1.04436 -0.000394591)
(0.672297 3.29846 -0.00155409)
(0.224611 0.97506 -0.000470521)
(-0.0611007 -0.44424 0.000482606)
(0.177413 0.780119 -0.000206734)
(0.144377 0.666332 -0.000197148)
(0.177803 0.78185 -0.000237155)
(0.144173 0.665343 -0.000176335)
(0.0579023 0.212204 -7.21106e-05)
(0.063338 0.232149 -8.02018e-05)
(-0.0330892 -0.242844 6.37918e-05)
(0.163407 0.808832 -0.00023477)
(0.0642708 0.338035 -9.61538e-05)
(0.0301799 0.109389 -3.79174e-05)
(0.0330045 0.119642 -4.33915e-05)
(1.39003 0.921199 -0.000202797)
(0.0284279 0.0267231 5.20921e-07)
(0.335744 -0.139322 -7.20876e-06)
(0.0144904 0.0135701 -7.98273e-06)
(0.347017 -0.143937 -8.02706e-06)
(-0.021151 -0.133572 0.000148002)
(-0.0236248 -0.148808 0.000166166)
(-0.0402157 -0.250983 0.000287012)
(-0.0945776 -0.761109 0.000808892)
(-0.0352031 -0.220112 0.000249986)
(0.185024 0.801417 -0.000928467)
(0.196609 0.852348 -0.000972307)
(0.101158 0.442713 -0.000414482)
(0.0758213 0.348023 -0.000323704)
(0.104713 0.458387 -0.000433572)
(0.0724548 0.332434 -0.000304127)
(0.0422169 0.192394 -0.000128064)
(0.0668578 0.291465 -0.00022074)
(0.073731 0.321784 -0.000261325)
(0.0480661 0.219526 -0.000165415)
(0.0581369 0.212683 -0.00028923)
(0.0565147 0.20661 -0.000280148)
(0.0621947 0.226822 -0.000280217)
(0.0583222 0.212796 -0.000274583)
(0.0135408 0.0691311 -4.26705e-05)
(0.06711 0.329204 -0.000288472)
(-0.0686147 -0.498509 0.000561477)
(0.023836 0.113942 -1.79226e-05)
(-0.00768153 -0.0432612 9.88214e-05)
(0.0309161 0.149265 -6.75314e-05)
(0.0315494 0.114147 -0.00016096)
(0.0301765 0.109094 -0.000153524)
(0.0335761 0.121047 -0.00015187)
(0.0309783 0.111734 -0.00014789)
(1.31696 0.871907 -0.00106733)
(1.28398 0.850079 -0.000962621)
(0.130925 0.123334 -0.000152518)
(0.359503 -0.149264 0.000103148)
(0.369692 -0.153493 0.000107767)
(0.118622 0.111732 -0.000141988)
(0.475359 -0.197124 8.66285e-05)
(0.223848 0.210833 -0.000226179)
(0.209518 0.197403 -0.000218731)
(0.455481 -0.188987 9.80469e-05)
(0.000168886 -0.00644108 3.82457e-06)
(0.000106235 -0.0110296 8.07031e-06)
(-0.0515908 -0.507901 0.000337245)
(-4.25292e-06 -0.0191626 1.60507e-05)
(-4.12143e-05 -0.0219574 1.51459e-05)
(-0.067011 -0.541846 0.00036534)
(-0.0539129 -0.530126 0.000466378)
(-0.000106136 -0.0265658 2.82718e-05)
(-0.000118714 -0.0275554 2.62798e-05)
(-0.0712755 -0.575619 0.000507628)
(-0.0717564 -0.579441 0.000516199)
(-9.18343e-06 -0.0192367 2.448e-05)
(-0.0576502 -0.566185 0.000558093)
(-0.000226292 -0.0352867 3.82673e-05)
(-0.0795854 -0.641682 0.000640279)
(1.37315 0.909279 -0.00114269)
(1.37066 0.907616 -0.00114069)
(1.36754 0.905532 -0.0011371)
(1.3726 0.9089 -0.00114199)
(0.211274 0.916124 -0.00102723)
(0.525127 2.57369 -0.00276117)
(0.54655 2.67862 -0.00286293)
(0.189152 0.820299 -0.00091977)
(0.180436 0.781094 -0.000908546)
(0.237669 1.07255 -0.00121248)
(0.268591 1.26711 -0.00139418)
(0.443417 2.17116 -0.00235775)
(0.181899 0.787573 -0.000914017)
(0.244965 1.1059 -0.00124195)
(0.257938 1.21649 -0.00134733)
(0.435875 2.13403 -0.00232934)
(1.39132 0.92183 -0.00065504)
(1.38851 0.920011 -0.000542624)
(1.3855 0.918049 -0.000392185)
(1.38673 0.918839 -0.000523791)
(0.442114 2.62035 -0.000909045)
(0.425855 2.52362 -0.000987333)
(-0.000606558 -0.00703283 3.12213e-06)
(-0.0655661 -0.530627 0.000196563)
(-0.000673048 -0.00742983 3.78276e-06)
(0.0223526 0.126483 -6.21039e-05)
(0.0225457 0.127615 -5.35235e-05)
(0.022611 0.128002 -3.87485e-05)
(0.0225673 0.127746 -5.0033e-05)
(0.231444 1.0048 -0.000282663)
(0.238363 1.03482 -0.000346833)
(0.629386 3.08802 -0.00109354)
(-0.0553871 -0.368041 0.000408056)
(-0.044106 -0.27494 0.000315616)
(-0.0646597 -0.46989 0.000515896)
(-0.0461499 -0.287527 0.000331161)
(-0.0601101 -0.399115 0.000447391)
(0.520293 4.45268 -0.00142203)
(0.512755 4.3887 -0.00111715)
(0.0833416 0.309798 -5.79295e-05)
(0.107898 0.442672 0.000485036)
(0.108111 0.443551 -0.00067702)
(0.0833718 0.309909 -7.61145e-05)
(0.14042 0.64739 -0.000162745)
(0.175628 0.772141 -0.00014806)
(0.176889 0.777775 -0.000179869)
(0.14353 0.662227 -0.000155828)
(0.10816 0.443748 0.000451074)
(0.0834889 0.31034 -9.994e-05)
(0.108254 0.444126 -0.000712097)
(0.0834064 0.310038 -8.28112e-05)
(0.0503401 0.760988 -0.000149145)
(-0.00240908 1.15099 -0.00020645)
(-0.00239375 1.14617 -0.000266191)
(0.0555507 0.839367 -0.000203115)
(-0.0583766 1.42775 -0.00036586)
(1.38855 0.920084 -0.000302313)
(-0.056166 1.37395 -0.000429886)
(-0.0589418 1.44155 -0.000253116)
(-0.0583887 1.42798 -0.00033534)
(1.38967 0.920826 -0.000271106)
(-0.00241049 1.15621 -0.000291942)
(0.0685849 1.03585 -0.000363998)
(-0.00232532 1.11528 -0.000347072)
(0.0584187 0.882533 -0.000231094)
(0.282679 1.27924 -0.000157871)
(0.208353 0.904738 -0.000156205)
(0.600655 2.94774 -0.000665184)
(0.362413 1.71388 -0.000453056)
(0.320179 1.51432 -0.000153497)
(0.611688 3.00205 -0.000610767)
(0.217599 0.944851 -0.000188011)
(0.325263 1.47176 -0.000365868)
(0.0764094 0.300239 -8.72654e-05)
(0.0729312 0.286469 -8.81564e-05)
(0.0642093 0.235462 -6.89029e-05)
(0.0651587 0.238841 -8.03793e-05)
(0.072665 0.285397 -9.06578e-05)
(0.735378 4.60228 -0.00122951)
(0.449252 2.66393 -0.000648373)
(0.727471 4.55347 -0.00112606)
(0.457204 3.05758 -0.000915614)
(0.47181 3.15523 -0.000770154)
(0.454753 2.69623 -0.000714272)
(-0.0313164 -0.230529 4.39815e-05)
(-0.019548 -0.132476 3.61906e-05)
(-0.000507661 -0.00653671 2.55206e-06)
(-0.0188881 -0.128746 2.60052e-05)
(-0.000525736 -0.00683033 2.45211e-06)
(0.0634072 0.332966 -5.91962e-05)
(0.160683 0.794507 -0.000142968)
(0.163132 0.807156 -0.000181544)
(0.0485821 0.261808 -7.30311e-05)
(0.0226671 0.12823 -3.08554e-05)
(0.0484812 0.26075 -4.87089e-05)
(0.0226379 0.127894 -2.64384e-05)
(0.036144 0.131114 -4.1718e-05)
(0.0347659 0.126039 -4.57597e-05)
(0.0661892 0.241344 -0.000286321)
(0.0686671 0.250362 -0.000289649)
(0.0322183 0.112603 -0.00013884)
(0.0362943 0.130826 -0.000156392)
(0.0381743 0.133422 -0.000149041)
(0.0379969 0.136958 -0.000159026)
(0.27234 0.799462 -0.000132672)
(0.272365 0.799481 -9.52374e-05)
(0.283296 0.658152 -8.77342e-05)
(0.283166 0.657846 -8.29734e-05)
(-0.188243 1.74515 -0.000143638)
(-0.0604756 1.47956 -0.000167916)
(1.38916 0.921004 -0.000247885)
(-0.823436 2.67844 -0.00034374)
(-0.0601402 1.47115 -0.000200104)
(-0.189315 1.75419 -0.000261346)
(0.069999 0.256721 1.73279e-05)
(0.0700721 0.256958 2.22944e-05)
(0.0387554 0.140581 1.45102e-05)
(0.0333392 0.117301 -1.42714e-06)
(0.0300391 0.105653 1.45596e-05)
(0.0370667 0.134431 1.553e-05)
(0.416923 2.46713 -0.0026135)
(0.388886 2.30105 -0.00246389)
(-0.000329681 -0.004946 1.81034e-05)
(-0.00314536 -0.0212422 3.67792e-05)
(-0.0279097 -0.175198 0.000197356)
(-0.0247358 -0.155649 0.000173963)
(-0.00801191 -0.0494045 6.92225e-05)
(-0.00441859 -0.0286102 4.49383e-05)
(1.35241 0.895466 -0.00111661)
(1.36211 0.901911 -0.00112823)
(1.36868 0.90628 -0.00113782)
(1.36271 0.902313 -0.00112911)
(-0.0220465 -0.130608 0.000163916)
(-0.0163118 -0.0974282 0.000124628)
(0.350966 2.07563 -0.00219221)
(0.377276 2.23211 -0.00238896)
(-0.0931161 -0.749459 0.000794246)
(-0.0293447 -0.184037 0.000207499)
(-0.033444 -0.20928 0.00023733)
(-0.00965671 -0.0589225 7.99378e-05)
(-0.014277 -0.0856557 0.000111066)
(0.198066 0.858704 -0.000962878)
(0.516912 2.53335 -0.00273893)
(0.190282 0.825115 -0.000925901)
(0.481226 2.35772 -0.00257335)
(0.283266 2.41085 -0.00250875)
(0.291574 2.48196 -0.00259342)
(0.0648552 0.265114 8.94564e-05)
(0.0525227 0.194676 -0.000189182)
(0.0553348 0.205139 -0.000201995)
(0.06094 0.249014 -0.000548517)
(0.0961891 0.420809 -0.000387526)
(0.0639021 0.292847 -0.000256721)
(0.0917792 0.40137 -0.000362543)
(0.0679606 0.311628 -0.000280218)
(0.0586309 0.217406 -0.000216847)
(0.0562739 0.208634 -0.000206359)
(0.0696329 0.284764 9.05248e-05)
(-0.00230469 1.37201 -0.00137618)
(0.0575093 0.860697 -0.000875121)
(0.0588086 0.880246 -0.000894403)
(-0.00225239 1.34524 -0.00134868)
(-0.0639477 1.57888 -0.00157368)
(1.35004 0.893881 -0.00111015)
(-0.0646716 1.59657 -0.00159412)
(-0.00232313 1.38122 -0.00138545)
(0.0602631 0.902162 -0.000917334)
(-0.00235295 1.39441 -0.00140094)
(0.0592367 0.886693 -0.000900998)
(-0.0635176 1.56834 -0.00156288)
(1.34709 0.891923 -0.00110669)
(-0.0623292 1.53917 -0.00153256)
(0.317313 2.70179 -0.00279087)
(0.311452 2.65168 -0.002743)
(0.0421937 0.156241 -0.000141868)
(0.0464659 0.172138 -0.000161453)
(0.0544578 0.22236 -0.000480888)
(0.051315 0.190182 -0.000183827)
(0.0591339 0.241587 8.80455e-05)
(0.0479144 0.177527 -0.000168078)
(0.0803971 0.351181 -0.000300118)
(0.0585311 0.267988 -0.000226803)
(0.0855828 0.374051 -0.000329371)
(0.0538232 0.246191 -0.000199098)
(-0.0574243 1.41866 -0.00140966)
(-0.0596828 1.47421 -0.00146417)
(1.32562 0.877675 -0.00108062)
(0.052084 0.779128 -0.000794194)
(-0.00202632 1.22659 -0.00122839)
(-0.00212868 1.28178 -0.0012825)
(0.0544144 0.814141 -0.000828322)
(-0.00215968 1.29804 -0.00129917)
(0.0569524 0.852296 -0.000866795)
(0.0552138 0.826155 -0.000840089)
(-0.00222837 1.33376 -0.00133717)
(-0.0603487 1.49057 -0.00148104)
(1.33106 0.881281 -0.00108618)
(-0.0618518 1.52748 -0.00152093)
(0.075724 0.29663 -0.000372718)
(0.075968 0.297448 -0.00037342)
(0.0559262 0.204269 -0.000274251)
(0.0561438 0.205207 -0.000277911)
(0.0759452 0.297681 -0.000373524)
(0.241884 1.14016 -0.00127405)
(0.406148 1.98754 -0.00220718)
(0.227403 1.02551 -0.00116453)
(0.176344 0.7628 -0.000896774)
(0.177391 0.767497 -0.000898824)
(0.234689 1.05895 -0.00119919)
(0.414404 2.0283 -0.00222019)
(0.253686 1.1963 -0.0013293)
(0.0773743 0.302711 -0.000373698)
(0.0769775 0.301208 -0.000373844)
(0.075986 0.297469 -0.000372892)
(0.0559983 0.204486 -0.000273237)
(0.0575151 0.209892 -0.000273867)
(0.263871 1.75784 -0.00185496)
(0.420904 2.62546 -0.00278745)
(0.277062 1.63717 -0.001742)
(0.283703 1.67656 -0.00178164)
(0.451607 2.81747 -0.00296314)
(0.441852 2.75654 -0.00290688)
(0.270564 1.80257 -0.00188884)
(-0.00204224 -0.0138381 4.49455e-05)
(-0.0265787 -0.156832 0.000194803)
(0.0507976 0.248145 -0.000191482)
(0.00546748 0.026431 8.42322e-06)
(-0.0290368 -0.171051 0.000212068)
(-0.00971255 -0.0555384 9.5246e-05)
(-0.0657575 -0.43641 0.000503345)
(-0.0537477 -0.334369 0.000394619)
(-0.0658257 -0.478285 0.000528628)
(-0.051958 -0.323307 0.000377388)
(-0.061712 -0.409663 0.000462495)
(0.462905 2.88815 -0.0030311)
(0.472305 2.94696 -0.00308573)
(0.294152 1.96026 -0.00203801)
(0.288151 1.92014 -0.00199935)
(-0.0215546 -0.120079 0.000180921)
(-0.0385755 -0.226293 0.000283803)
(0.0441531 0.215122 -0.000150895)
(0.00215896 0.00892867 2.9636e-05)
(0.0379198 0.184126 -0.000113374)
(-0.0361755 -0.212365 0.000264304)
(-0.0127414 -0.0720087 0.000115605)
(0.0294881 0.106488 -0.000148134)
(0.029845 0.107866 -0.000151614)
(0.0295111 0.106542 -0.00014732)
(0.0304377 0.109807 -0.000147368)
(0.117176 0.34306 -0.000296414)
(0.142905 0.418602 -0.000396173)
(0.191064 0.443199 -0.000456975)
(0.185739 0.430834 -0.000441945)
(0.158361 0.367276 -0.000365034)
(0.166503 0.386187 -0.000391702)
(0.14987 0.439059 -0.000422673)
(-0.600554 1.95608 -0.0018454)
(1.31166 0.868385 -0.00105826)
(-0.0560346 1.3846 -0.00137337)
(-0.167831 1.56132 -0.00153212)
(-0.573077 1.86677 -0.00182112)
(-0.503431 1.63931 -0.00145092)
(-0.52151 1.69853 -0.0016071)
(-0.145186 1.35138 -0.00132119)
(-0.0502284 1.24192 -0.00122605)
(1.29439 0.856914 -0.00101814)
(-0.555898 1.81095 -0.00171329)
(0.0878868 0.320515 -0.000318868)
(0.0809602 0.295233 -0.000310429)
(0.144542 0.136174 -0.000164031)
(0.397296 -0.164957 0.000119409)
(0.382526 -0.158822 0.000113467)
(0.158684 0.14951 -0.000174083)
(0.0544927 0.190587 -0.000178519)
(0.0507826 0.18311 -0.000179782)
(0.0462179 0.166625 -0.000173958)
(0.0409417 0.143102 -0.000153286)
(0.190494 0.179496 -0.000201686)
(0.415018 -0.172305 0.000115678)
(0.433416 -0.179907 0.000113138)
(0.174809 0.164715 -0.000185957)
(0.690636 3.38843 -0.00169939)
(0.215716 0.936427 -0.000478969)
(0.216628 0.940099 -0.00048817)
(0.704554 3.45626 -0.0019809)
(0.248983 1.08016 -0.000918828)
(0.619144 3.03637 -0.00243518)
(0.252635 1.09613 -0.000860325)
(0.620895 3.04458 -0.00258435)
(0.208235 0.903305 -0.000930296)
(0.601415 2.94821 -0.00288019)
(0.241022 1.04545 -0.00102643)
(0.569655 2.79255 -0.00271009)
(-0.0656413 -0.531147 0.000240476)
(-0.0332203 -0.243627 0.000119135)
(-0.0471717 -0.343863 0.000356677)
(-0.0597567 -0.434553 0.00047055)
(-0.0973412 -0.783146 0.000836599)
(-0.0519587 -0.511375 0.000373891)