/*--------------------------------*- C++ -*----------------------------------*\
| =========                 |                                                 |
| \\      /  F ield         | OpenFOAM: The Open Source CFD Toolbox           |
|  \\    /   O peration     | Version:  2306                                  |
|   \\  /    A nd           | Website:  www.openfoam.com                      |
|    \\/     M anipulation  |                                                 |
\*---------------------------------------------------------------------------*/
FoamFile
{
    version     2.0;
    format      ascii;
    arch        "LSB;label=32;scalar=64";
    class       volScalarField;
    location    "1.6";
    object      p;
}
// * * * * * * * * * * * * * * * * * * * * * * * * * * * * * * * * * * * * * //

dimensions      [0 2 -2 0 0 0 0];

internalField   nonuniform List<scalar> 
111542
(
59.7888
61.1034
64.235
69.3615
76.5743
86.0996
98.1124
112.658
129.258
146.495
161.811
171.184
170.536
158.6
138.352
115.439
93.8111
75.0053
59.2522
46.4899
36.3804
28.6075
22.7709
18.3518
15.0087
12.4575
10.4103
8.82658
7.64925
6.74524
6.02754
5.43739
4.98544
4.60031
4.23008
3.83296
3.35601
2.7947
2.04869
1.02775
58.7463
60.0222
63.1244
68.194
75.4033
85.0828
97.6185
113.276
131.899
152.422
172.145
185.501
184.863
168.857
143.211
116.491
92.8357
72.9716
56.7758
43.9681
34.1136
26.6782
21.1199
17.0445
14
11.6474
9.80802
8.39273
7.30819
6.45742
5.77392
5.21628
4.75905
4.36175
3.98457
3.59014
3.13553
2.57649
1.84314
0.878864
56.6809
57.8917
60.8564
65.7503
72.855
82.6924
95.9875
113.561
136.085
163.403
192.177
213.779
213.946
188.642
152.54
119.317
91.8402
69.8577
52.7625
39.8008
30.2127
23.4475
18.6162
15.0866
12.2226
9.9004
8.15097
6.88023
5.94313
5.23376
4.68928
4.26706
3.93169
3.6503
3.38814
3.10993
2.77214
2.31987
1.67954
0.770675
53.6433
54.7294
57.4056
61.8923
68.581
78.209
91.9375
111.479
139.252
178.51
213.726
256.55
262.244
221.332
169.045
128.49
95.3411
69.9593
51.2582
37.615
23.6066
17.2622
14.8638
13.4784
11.4954
9.43413
7.78822
6.5497
5.58248
4.80818
4.1909
3.70058
3.30758
2.98195
2.69527
2.41693
2.103
1.69317
1.09355
0.177901
49.742
50.6219
52.8059
56.5289
62.2332
70.7706
83.5953
103.143
133.455
178.385
255.609
342.033
365.652
257.31
172.237
123.672
84.3133
57.5201
39.7347
28.2586
20.9477
5.4489
4.89121
5.68956
5.21151
4.48987
3.96687
3.5712
3.22596
2.92502
2.67457
2.46925
2.30081
2.1569
2.02763
1.89761
1.7368
1.49252
1.04759
0.10987
45.1707
45.7553
47.2205
49.758
53.7442
59.9162
69.6084
85.2824
111.716
166.57
260.535
455.763
619.973
245.503
170.497
114.585
67.6615
41.322
25.6254
16.1033
15.1357
13.5769
12.5999
7.93163
4.77988
3.28697
2.49313
1.92367
1.48743
1.17767
0.970929
0.835786
0.748772
0.693986
0.659838
0.635192
0.607581
0.567845
0.53137
0.654386
40.2167
40.4367
40.9956
41.9846
43.5832
46.1283
50.2025
56.7906
67.5896
107.073
183.122
415.25
1946.59
-426.506
184.837
80.7645
32.1664
16.3539
7.67792
-2.14293
-6.12929
15.2526
14.9262
9.20107
5.6289
4.16222
3.46443
2.96367
2.57882
2.30947
2.12838
2.00089
1.90525
1.82763
1.76031
1.69787
1.62793
1.54546
1.45168
1.39341
35.252
35.0777
34.6497
33.9331
32.855
31.2372
28.6696
24.1971
15.4176
17.6211
0.731067
-159.879
-996.761
-1045.55
-310.019
-100.026
-45.8257
-25.9124
-17.0132
-10.8602
-4.09664
-8.17028
-6.32949
-4.72441
-3.84219
-2.89823
-1.95173
-1.17507
-0.571093
-0.0859834
0.313386
0.641271
0.907681
1.12029
1.28432
1.3996
1.45195
1.41025
1.20708
0.711459
30.6784
30.1363
28.7794
26.4692
22.9299
17.5968
9.43901
-3.44888
-24.7045
-48.0889
-121.846
-266.582
-476.746
-505.137
-319.236
-174.798
-100.626
-61.5679
-39.6597
-25.7351
-15.7189
-8.90685
-4.81428
-1.87668
-0.113225
0.977472
1.75401
2.31136
2.689
2.93713
3.0975
3.19477
3.24196
3.24524
3.20429
3.11212
2.94499
2.65379
2.14298
1.22214
26.8873
26.0351
23.923
20.3396
14.8966
6.86
-4.98601
-22.6229
-49.3406
-90.7466
-148.746
-221.759
-287.372
-295.734
-238.446
-165.747
-110.743
-75.3281
-52.2585
-36.2185
-24.8199
-17.212
-12.0918
-8.41911
-5.80225
-3.92409
-2.5
-1.38417
-0.511301
0.168934
0.701648
1.11996
1.44406
1.6847
1.84256
1.91232
1.87156
1.67765
1.26895
0.593836
24.1828
23.1178
20.4847
16.0484
9.37865
-0.259103
-13.979
-33.2836
-60.0491
-96.1486
-141.555
-191.071
-230.001
-237.514
-207.515
-159.097
-114.958
-82.5993
-59.7514
-43.0313
-30.5648
-21.406
-14.6635
-9.69016
-6.04043
-3.37695
-1.41951
0.0301552
1.09959
1.87935
2.44019
2.83496
3.09922
3.25313
3.29678
3.24157
3.06417
2.71737
2.12659
1.15646
22.7763
21.6128
18.7046
13.8668
6.59569
-3.74978
-18.1976
-37.9041
-64.0415
-96.983
-135.249
-173.454
-201.641
-208.219
-188.985
-153.419
-116.204
-85.8249
-63.1119
-46.076
-33.1601
-23.4763
-16.3404
-11.1223
-7.35373
-4.61858
-2.61555
-1.13375
-0.0307639
0.790583
1.40063
1.85013
2.17451
2.39858
2.46934
2.46296
2.33811
2.04388
1.52796
0.731605
59.2022
60.4603
63.5105
68.4615
75.421
84.6078
96.2299
110.291
126.32
142.997
157.844
166.936
166.262
154.7
135.092
112.849
91.8324
73.4824
58.0786
45.5699
35.7031
28.1014
22.3402
17.9997
14.7001
12.1376
10.1198
8.56094
7.38
6.47816
5.77726
5.22419
4.78527
4.41419
4.06739
3.70438
3.28093
2.74925
2.0299
1.02372
58.1715
59.4062
62.4077
67.3041
74.2651
83.6134
95.7299
110.869
128.888
148.783
167.945
181.007
180.223
164.645
139.775
113.856
90.8407
71.4393
55.598
43.0812
33.4764
26.2038
20.7339
16.7044
13.6768
11.3222
9.48673
8.07937
7.00386
6.1691
5.50971
4.98178
4.55154
4.18199
3.83729
3.48055
3.0703
2.55356
1.85957
0.911008
56.1361
57.3091
60.1722
64.8967
71.7559
81.2576
94.1093
111.116
132.945
159.472
187.444
208.453
208.713
184.03
148.966
116.729
89.929
68.3878
51.6342
38.994
29.7706
23.1822
18.3595
14.7797
11.8746
9.53353
7.78447
6.52877
5.61633
4.93766
4.42781
4.04173
3.7423
3.49589
3.27068
3.03273
2.74158
2.34001
1.74612
0.848635
53.1448
54.1959
56.7768
61.1028
67.5552
76.8519
90.1279
109.066
136.056
174.34
210.027
252.218
257.74
217.222
166.117
126.424
93.7833
68.7126
50.2625
36.8861
23.3089
17.4395
14.7806
13.0749
10.9055
8.78642
7.16399
5.98846
5.09867
4.40372
3.86101
3.4364
3.10037
2.82456
2.58442
2.35377
2.0958
1.75094
1.21748
0.32663
49.3063
50.1548
52.2558
55.8374
61.3306
69.5666
81.9704
100.943
130.488
175.475
251.817
337.369
360.378
252.829
170.01
122.262
83.1115
56.3867
38.7283
27.4432
20.2473
6.8652
5.64363
5.75968
4.8822
3.98284
3.4134
3.03278
2.72829
2.47813
2.28002
2.12342
1.99912
1.89542
1.80378
1.71545
1.60946
1.43757
1.07768
0.188953
44.8142
45.3718
46.7725
49.2002
53.0223
58.96
68.3255
83.5557
109.413
164.207
257.978
452.154
615.476
243.035
171.562
113.842
66.9009
40.518
24.8988
15.496
12.7258
11.7554
11.0015
6.50966
3.56211
2.335
1.80731
1.4617
1.19438
1.00068
0.865584
0.768204
0.698085
0.649382
0.620702
0.61214
0.623337
0.65568
0.721324
0.892292
39.9369
40.1491
40.6683
41.589
43.0902
45.5039
49.4097
55.803
66.4268
105.834
181.796
412.459
1940.84
214.433
75.3658
30.6289
15.7284
7.44394
-3.20848
-10.8269
14.9446
14.3335
8.68125
5.31562
3.96342
3.27912
2.73537
2.2833
1.93899
1.68474
1.49277
1.34708
1.23666
1.15724
1.1067
1.08206
1.08403
1.12127
1.24207
35.0586
34.8901
34.4491
33.7116
32.6116
30.9793
28.4239
24.0372
15.5136
17.7647
1.2236
-158.606
-989.332
-1028.31
-304.621
-98.5336
-45.0879
-25.7447
-17.1425
-11.1496
-4.36362
-9.59207
-7.54214
-5.64474
-4.44521
-3.27457
-2.20437
-1.36625
-0.734022
-0.241253
0.152556
0.468358
0.722042
0.925357
1.08894
1.21823
1.30648
1.32629
1.20463
0.75767
30.5757
30.042
28.6958
26.4099
22.9183
17.6741
9.68038
-2.91056
-23.6368
-46.9434
-119.288
-262.048
-469.664
-495.104
-313.428
-171.379
-98.6402
-60.5214
-39.1889
-25.6325
-15.8571
-9.67182
-5.54124
-2.46778
-0.562162
0.623121
1.44005
2.0021
2.36445
2.58643
2.71647
2.78471
2.8082
2.79639
2.75241
2.67285
2.53793
2.30199
1.87247
1.06597
26.8543
26.0154
23.9416
20.4195
15.0775
7.20748
-4.37103
-21.5813
-47.6218
-87.9763
-144.537
-215.844
-280.175
-288.141
-232.172
-161.466
-108.15
-73.8739
-51.5129
-35.9448
-24.8929
-17.5631
-12.5217
-8.83031
-6.17581
-4.26217
-2.80926
-1.67398
-0.791793
-0.110729
0.417424
0.828613
1.1458
1.38223
1.5425
1.62367
1.60702
1.45353
1.10629
0.520595
24.2036
23.1606
20.5771
16.2235
9.69478
0.271173
-13.1254
-31.954
-58.0329
-93.1936
-137.421
-185.66
-223.687
-231.2
-202.059
-155.137
-112.385
-81.0461
-58.8719
-42.6082
-30.4678
-21.5396
-14.9239
-10.0129
-6.39194
-3.73929
-1.78365
-0.334077
0.732597
1.50622
2.05891
2.44508
2.70182
2.85168
2.90326
2.85973
2.7036
2.39466
1.86808
1.01592
22.829
21.6784
18.8411
14.0803
6.98471
-3.13002
-17.2319
-36.456
-61.899
-94.0037
-131.297
-168.553
-196.112
-202.751
-184.259
-149.735
-113.643
-84.2067
-62.1487
-45.565
-32.963
-23.5011
-16.5129
-11.3975
-7.66834
-4.94821
-2.95087
-1.46986
-0.366302
0.454842
1.06332
1.50994
1.82925
2.04047
2.14323
2.14912
2.03925
1.77626
1.31861
0.640287
58.0888
59.2631
62.1155
66.7334
73.2191
81.7777
92.6058
105.696
120.61
136.138
149.945
158.364
157.691
146.81
128.382
107.457
87.6127
70.1843
55.4923
43.537
34.0994
26.7921
21.2182
17.0292
13.8655
11.4186
9.50442
8.02161
6.88627
6.01497
5.33772
4.8031
4.37163
4.00759
3.67583
3.33941
2.95655
2.47492
1.82404
0.909519
57.0831
58.2391
61.0408
65.6049
72.0899
80.7966
92.0804
106.177
122.962
141.512
159.43
171.486
170.781
156.097
132.713
108.353
86.6066
68.1523
53.0384
41.0971
31.9276
24.8973
19.5915
15.7474
12.9025
10.6853
8.93761
7.5775
6.52146
5.69211
5.03259
4.50278
4.06964
3.70213
3.37011
3.04078
2.67538
2.22201
1.61275
0.773169
55.1046
56.2013
58.8681
63.2651
69.6474
78.4887
90.4521
106.298
126.673
151.497
177.746
197.664
197.684
174.254
141.315
111.073
85.6929
65.123
49.1052
37.0687
28.3527
21.9066
17.1639
13.7916
11.1407
8.99834
7.36833
6.17175
5.28126
4.60288
4.08173
3.67948
3.3638
3.10765
2.88487
2.66829
2.42271
2.09524
1.60105
0.807368
52.2008
53.1796
55.5759
59.5904
65.5798
74.2168
86.5711
104.242
129.531
165.616
200.864
241.374
246.451
207.231
158.705
121.22
89.8985
65.6744
47.868
35.018
21.3591
15.634
13.4896
12.1229
10.0746
7.96849
6.30547
5.06436
4.10598
3.35335
2.76874
2.32021
1.97851
1.71673
1.51318
1.34709
1.19005
0.99198
0.659587
0.0343907
48.4803
49.266
51.205
54.51
59.5867
67.2165
78.7506
96.4868
124.316
168.26
241.994
325.101
346.775
241.329
163.336
118.358
79.9595
53.5555
36.2523
25.302
18.0567
2.39354
3.33513
4.86556
4.40516
3.54965
2.92277
2.44752
2.03711
1.68651
1.40101
1.17483
1.00265
0.875161
0.789871
0.745733
0.738906
0.742189
0.656514
0.131834
44.1201
44.6426
45.9184
48.1293
51.6251
57.0874
65.7702
80.0256
104.535
158.187
250.432
441.789
600.631
230.365
169.464
113.401
65.1831
37.9791
22.2847
13.0234
6.53731
6.17028
6.81002
3.02931
0.106022
-1.3001
-1.97389
-2.39534
-2.67687
-2.83486
-2.89646
-2.89711
-2.84576
-2.75544
-2.62561
-2.44697
-2.19738
-1.83641
-1.27354
-0.229462
39.417
39.5988
40.04
40.8285
42.1356
44.2799
47.8234
53.7667
63.9223
102.729
178.388
410.346
1918.85
219.58
82.4429
32.072
14.513
5.49137
-4.22354
-7.96917
13.1083
11.521
5.13464
1.53962
0.198982
-0.369549
-0.739815
-0.994536
-1.14283
-1.21489
-1.24219
-1.24121
-1.21205
-1.1498
-1.04094
-0.861991
-0.580467
-0.140964
0.525767
34.7061
34.5275
34.0614
33.2851
32.1403
30.4723
27.9294
23.695
15.6713
18.2203
3.25956
-149.772
-967.066
-1006.78
-294.258
-92.0385
-42.3671
-25.1589
-17.5223
-11.8901
-4.34197
-8.90244
-8.12839
-7.16175
-6.2101
-5.05268
-3.94839
-3.05291
-2.34814
-1.77896
-1.30925
-0.918629
-0.592182
-0.314853
-0.0659912
0.168724
0.399583
0.61559
0.75321
0.583043
30.3794
29.854
28.537
26.3003
22.9008
17.83
10.1606
-1.8284
-21.4473
-43.902
-112.788
-249.959
-450.686
-475.412
-299.345
-162.827
-94.0707
-58.3132
-38.2949
-25.4851
-16.0887
-10.21
-6.51556
-3.75747
-2.00325
-0.882936
-0.0766243
0.513584
0.927957
1.21387
1.41399
1.55461
1.65167
1.7152
1.75555
1.77573
1.76677
1.6949
1.47407
0.909719
26.7929
25.9835
23.9737
20.5701
15.4269
7.88245
-3.16551
-19.5138
-44.1598
-82.2857
-135.767
-203.418
-264.769
-272.611
-219.696
-153.08
-103.121
-71.0433
-50.0227
-35.3262
-24.8876
-18.022
-13.048
-9.41312
-6.8753
-5.05872
-3.64931
-2.51802
-1.6183
-0.907925
-0.342666
0.110317
0.473495
0.758367
0.975442
1.12524
1.19554
1.1544
0.946421
0.506611
24.2401
23.2347
20.7471
16.56
10.3
1.29248
-11.4682
-29.3458
-54.0408
-87.2838
-129.101
-174.793
-211.046
-218.507
-191.279
-147.251
-107.188
-77.8033
-56.9211
-41.5385
-30.027
-21.5273
-15.1192
-10.3577
-6.88401
-4.35031
-2.46948
-1.05836
-0.006007
0.769708
1.33662
1.74611
2.03389
2.22173
2.32267
2.33845
2.25658
2.04461
1.64375
0.945677
22.9181
21.8105
19.0827
14.5093
7.71836
-1.93898
-15.3608
-33.6103
-57.7077
-88.0869
-123.378
-158.701
-184.987
-191.631
-174.558
-142.293
-108.475
-80.8365
-60.0333
-44.3214
-32.3422
-23.3153
-16.5995
-11.6496
-8.03277
-5.39964
-3.46465
-2.02029
-0.932827
-0.112975
0.504844
0.969029
1.31267
1.55472
1.704
1.76014
1.7113
1.52981
1.17887
0.626661
56.5376
57.5988
60.1678
64.3205
70.1429
77.8115
87.4936
99.1712
112.443
126.228
138.436
145.783
145.043
135.128
118.432
99.4646
81.3688
65.3423
51.7464
40.6454
31.8587
24.9967
19.6703
15.599
12.5147
10.1498
8.31789
6.90632
5.82888
5.00736
4.37609
3.88484
3.49462
3.17275
2.88925
2.61231
2.30456
1.91957
1.39722
0.664323
55.5713
56.6135
59.1326
63.23
69.0425
76.8318
86.9063
99.4662
114.392
130.866
146.799
157.241
156.541
143.207
122.086
100.081
80.2732
63.3029
49.3378
38.2995
29.8179
23.1514
17.9774
14.1925
11.4244
9.29796
7.63326
6.34407
5.35189
4.58364
3.98391
3.51201
3.13496
2.82407
2.55349
2.29629
2.02024
1.68065
1.21724
0.564277
53.6693
54.6558
57.0453
60.9786
66.6797
74.5647
85.2169
99.3083
117.417
139.492
162.852
180.691
180.323
158.989
129.411
102.242
79.1418
60.2198
45.4538
34.44
26.6635
20.3338
15.2417
11.7547
9.2805
7.37539
5.92713
4.8596
4.06935
3.47419
3.02358
2.68279
2.42438
2.22448
2.06464
1.92563
1.78328
1.59419
1.27813
0.681834
50.8832
51.7606
53.8947
57.4639
62.7844
70.4503
81.4119
97.1007
119.607
151.89
185.548
222.776
226.995
190.3
146.168
112.271
83.3043
60.7262
44.1538
32.2912
19.5956
13.9994
10.9588
9.16757
7.315
5.57734
4.23507
3.24874
2.49812
1.912
1.45568
1.10831
0.847269
0.651968
0.515926
0.432969
0.396178
0.378226
0.303548
-0.0231287
47.3218
48.0219
49.7297
52.6369
57.1043
63.8262
74.013
89.7399
114.599
155.97
224.234
302.138
321.577
220.878
150.77
110.211
73.7658
48.709
32.4781
22.2973
15.412
-2.7105
-0.917376
1.52372
1.61898
1.07668
0.635173
0.282048
-0.0407288
-0.327817
-0.569612
-0.75743
-0.897829
-0.992486
-1.02905
-0.990964
-0.852647
-0.59884
-0.279823
-0.236499
43.1662
43.6179
44.7123
46.6101
49.6231
54.3606
61.95
74.5425
96.5245
147.237
235.523
420.153
570.399
205.476
158.45
108.191
59.9818
33.4006
18.6571
10.1873
6.34738
-4.56309
-1.06745
-1.32743
-2.48809
-3.09975
-3.37207
-3.59863
-3.82147
-4.00967
-4.15192
-4.26401
-4.32758
-4.34257
-4.28915
-4.13162
-3.80848
-3.21114
-2.15355
-0.370383
38.6863
38.8262
39.1535
39.7471
40.7609
42.4784
45.4093
50.5
59.5432
96.5119
170.389
401.385
1876.32
204.095
91.8515
31.1888
11.7469
2.80568
-7.31702
-16.3263
14.0369
11.536
4.52826
0.49756
-1.35751
-2.41189
-3.17726
-3.74474
-4.14051
-4.40505
-4.56822
-4.65866
-4.68515
-4.6257
-4.45357
-4.11256
-3.50725
-2.48437
-0.865813
34.2121
34.0177
33.5126
32.6755
31.454
29.7066
27.127
23.0107
15.5525
18.2936
5.67194
-135.475
-914.148
-960.916
-270.398
-81.9124
-39.7968
-25.697
-19.1927
-13.9689
-6.12237
-8.27747
-7.62277
-6.97691
-6.22574
-5.26963
-4.3451
-3.59573
-3.01722
-2.56519
-2.20647
-1.90857
-1.67499
-1.47627
-1.27584
-1.04396
-0.745184
-0.349416
0.118609
0.37689
30.1029
29.5897
28.3085
26.1369
22.8593
18.0212
10.7954
-0.346115
-18.3462
-39.1895
-102.373
-229.373
-417.052
-439.945
-274.425
-149.229
-87.5135
-55.504
-37.4195
-25.732
-17.1614
-12.2293
-7.62922
-4.30728
-2.54978
-1.60748
-0.974655
-0.53221
-0.247149
-0.0715569
0.0398744
0.115237
0.167192
0.211767
0.264862
0.337233
0.433452
0.542158
0.600367
0.440774
26.7015
25.9285
24.0101
20.7724
15.9063
8.81876
-1.47572
-16.5773
-39.1558
-73.8561
-122.48
-184.151
-240.29
-247.864
-200.296
-140.461
-95.7717
-66.9579
-47.8866
-34.4859
-25.0285
-18.9208
-13.5658
-9.60666
-7.07158
-5.36298
-4.04624
-2.98701
-2.15019
-1.4955
-0.977874
-0.563252
-0.230313
0.0369735
0.254696
0.428797
0.556482
0.619181
0.57201
0.352568
24.2819
23.3282
20.9725
17.0184
11.1333
2.71173
-9.14631
-25.6532
-48.3212
-78.6981
-116.826
-158.51
-191.814
-199.071
-174.879
-135.462
-99.5415
-73.0412
-54.0265
-39.9227
-29.3473
-21.4954
-15.3213
-10.6267
-7.23283
-4.79744
-3.00555
-1.6691
-0.680959
0.0395266
0.560674
0.934941
1.19882
1.37635
1.48469
1.52887
1.50184
1.38117
1.12249
0.655343
23.0304
21.9828
19.4072
15.1007
8.73215
-0.282286
-12.7473
-29.6049
-51.7586
-79.5883
-111.861
-144.197
-168.433
-174.956
-160.011
-131.252
-100.895
-75.8956
-56.9052
-42.4525
-31.3799
-22.9868
-16.6411
-11.851
-8.31128
-5.74314
-3.86824
-2.47407
-1.42769
-0.642498
-0.0540371
0.386508
0.713061
0.947293
1.10165
1.17855
1.17014
1.05789
0.817005
0.442296
54.6741
55.5968
57.823
61.4131
66.4302
73.01
81.2754
91.1841
102.365
113.874
123.934
129.834
128.882
120.151
105.693
89.2548
73.4197
59.2178
47.0423
37.0341
29.0919
22.8884
18.0397
14.2637
11.3622
9.13517
7.41681
6.09438
5.08305
4.31154
3.72059
3.26058
2.89462
2.59336
2.33791
2.10138
1.84952
1.54637
1.13966
0.549534
53.7522
54.6569
56.8337
60.3649
65.3568
72.016
80.5812
91.1888
103.695
117.363
130.376
138.77
137.869
126.303
108.221
89.3331
72.0946
57.1065
44.659
34.7923
27.2579
21.3605
16.7135
13.1537
10.4682
8.39547
6.77476
5.51869
4.55107
3.80754
3.23722
2.79368
2.44018
2.15549
1.91932
1.71
1.50428
1.26559
0.942958
0.458044
51.9413
52.7936
54.8457
58.2134
63.0763
69.769
78.7564
90.5627
105.619
123.831
143.023
157.307
156.381
138.13
113.249
90.2689
70.3492
53.7497
40.6908
31.0492
24.721
19.3894
14.4921
10.9417
8.50966
6.70993
5.33841
4.30941
3.52945
2.93399
2.47102
2.11327
1.84498
1.64281
1.49162
1.38159
1.3033
1.22882
1.09129
0.700053
49.2968
50.0477
51.8607
54.8832
59.3719
65.8084
74.9595
87.9723
106.525
133.026
163.478
194.837
197.667
165.532
128.16
99.1942
73.7922
53.8586
39.1913
28.9512
19.7445
17.1482
11.7804
7.86015
5.25205
3.37176
2.03473
1.10358
0.446315
-0.0384542
-0.399756
-0.659286
-0.833952
-0.948226
-1.00176
-0.982279
-0.872861
-0.662167
-0.370526
-0.16481
45.9271
46.5164
47.9399
50.3547
54.0561
59.6091
67.9938
80.8966
101.275
137.858
195.841
263.191
278.921
189.294
132.489
96.8319
63.9802
41.6103
27.2883
18.8257
15.7908
8.15258
5.71381
4.03024
2.34115
0.889114
-0.179186
-0.976063
-1.61042
-2.12862
-2.54983
-2.87132
-3.10342
-3.25984
-3.32444
-3.25289
-2.98996
-2.44639
-1.54361
-0.523108
42.0093
42.3737
43.2441
44.7508
47.149
50.931
57.0068
67.135
84.9654
129.673
208.824
377.033
513.251
171.758
154.955
97.4843
50.8491
25.9049
12.4151
4.56484
-3.03221
-31.4637
-28.151
-26.0305
-24.9959
-23.8483
-22.7478
-21.8553
-21.1244
-20.4832
-19.8964
-19.3664
-18.8527
-18.3157
-17.7215
-17.0109
-16.0629
-14.6258
-12.1367
-7.19717
37.7973
37.8852
38.07
38.4161
39.0472
40.1817
42.2219
45.9319
52.8205
85.4214
152.983
373.848
1796.72
271.545
73.6835
17.321
-1.00322
-8.80308
-14.8266
-20.0007
-1.60404
-4.24646
-9.37279
-11.9969
-13.0042
-13.4621
-13.7336
-13.8679
-13.8776
-13.7947
-13.6636
-13.4551
-13.1784
-12.8148
-12.3057
-11.5396
-10.2868
-8.11452
-4.36377
33.601
33.3907
32.836
31.9162
30.5814
28.6988
25.994
21.863
14.8137
17.0749
6.48221
-118.608
-829.873
-860.276
-231.706
-74.0729
-41.3047
-29.969
-24.0253
-18.8615
-13.7245
-22.5104
-18.1079
-14.1411
-11.8828
-10.265
-8.98576
-8.0264
-7.32226
-6.79318
-6.38424
-6.05072
-5.77727
-5.52759
-5.25933
-4.91941
-4.4345
-3.69159
-2.5666
-1.11668
29.7569
29.2596
28.0146
25.9146
22.7731
18.1985
11.4847
1.34874
-14.6588
-33.1989
-88.1428
-198.828
-363.338
-381.421
-236.983
-131.328
-79.8549
-52.6283
-36.8386
-26.7735
-20.95
-19.692
-12.9985
-7.77943
-5.2269
-3.916
-3.04169
-2.42786
-2.01971
-1.75034
-1.56282
-1.42455
-1.3163
-1.20984
-1.08469
-0.917439
-0.680242
-0.347023
0.0664398
0.368419
26.5762
25.8458
24.0353
20.9921
16.4542
9.91437
0.537335
-13.016
-32.9609
-63.1364
-104.998
-157.828
-205.77
-212.873
-173.657
-123.947
-86.4793
-61.8336
-45.1646
-33.3966
-25.3584
-20.6802
-15.3247
-11.0201
-8.24629
-6.37414
-4.93116
-3.77863
-2.87635
-2.17614
-1.62744
-1.19096
-0.843682
-0.558541
-0.316665
-0.102843
0.0925792
0.267886
0.391156
0.366942
24.3156
23.4234
21.2236
17.5463
12.1101
4.39777
-6.35409
-21.1596
-41.264
-67.9193
-101.091
-137.151
-166.098
-172.897
-153.035
-120.148
-89.7742
-66.9271
-50.2098
-37.6769
-28.2941
-21.397
-15.8303
-11.3598
-8.0114
-5.56867
-3.75399
-2.38864
-1.36868
-0.615088
-0.0602861
0.347962
0.646526
0.862825
1.01563
1.11486
1.16052
1.13824
1.00894
0.67932
23.1477
22.171
19.7754
15.7854
9.92121
1.68445
-9.60714
-24.7419
-44.4559
-69.0221
-97.335
-125.627
-146.96
-153.155
-141.003
-116.966
-91.1667
-69.5319
-52.7979
-39.897
-29.9516
-22.3963
-16.632
-12.1515
-8.74278
-6.22043
-4.35189
-2.94405
-1.87371
-1.06008
-0.442093
0.0275809
0.38305
0.647883
0.83657
0.955509
1.00142
0.960625
0.809488
0.517032
52.6385
53.4104
55.2634
58.24
62.3769
67.762
74.4634
82.4033
91.2288
100.133
107.68
111.806
110.471
103.029
91.1274
77.5976
64.4005
52.3597
41.8521
33.0612
25.9577
20.3371
15.9474
12.5476
9.92422
7.88738
6.29873
5.06556
4.11395
3.38385
2.8282
2.39847
2.06074
1.77026
1.53873
1.3396
1.1271
0.889357
0.595047
0.213811
51.7635
52.5191
54.3229
57.2352
61.3274
66.7408
73.6284
82.0403
91.7781
102.154
111.631
117.447
116.045
106.509
92.0469
76.8676
62.7392
50.1651
39.4896
30.8074
23.9312
18.5697
14.4084
11.2347
8.80687
6.90628
5.40642
4.23139
3.30605
2.58508
2.05426
1.6567
1.32515
1.06292
0.851037
0.67402
0.524083
0.367467
0.183243
-0.0200883
50.0507
50.7575
52.4409
55.1878
59.1269
64.4945
71.608
80.7934
92.2464
105.702
119.419
128.957
127.151
112.603
93.3548
75.5688
59.7973
46.2053
35.1824
26.6307
20.0912
15.3594
11.4593
8.55071
6.37303
4.69705
3.41643
2.47351
1.73056
1.18454
0.746262
0.401699
0.165466
0.0166767
-0.0824384
-0.12937
-0.123785
-0.0725631
0.000865087
0.0364249
47.5583
48.1731
49.6335
52.0538
55.6192
60.6745
67.7521
77.6084
91.2765
110.047
135.052
157.214
158.132
132.835
104.011
81.4385
61.2289
44.9694
32.684
23.7832
12.4412
9.70309
6.36287
3.80545
1.68342
0.000328089
-1.25965
-2.18668
-2.82378
-3.30501
-3.66199
-3.90385
-4.04331
-4.10691
-4.09653
-3.98682
-3.75184
-3.33926
-2.66689
-1.56172
44.398
44.8641
45.9749
47.8453
50.6892
54.9114
61.1884
70.6529
85.2393
114.294
155.511
203.176
210.455
140.483
100.296
73.667
48.1502
30.3935
18.7892
11.9889
10.2601
-1.81301
-3.15889
-4.5359
-5.92812
-7.20328
-8.09277
-8.66468
-9.05064
-9.32856
-9.52169
-9.64473
-9.66296
-9.57501
-9.42527
-9.12729
-8.60236
-7.69877
-6.15433
-3.54043
40.7386
41.0051
41.6282
42.6994
44.4026
47.0776
51.339
58.3441
70.4439
104.826
165.262
292.846
392.538
103.921
114.825
59.2904
21.9979
2.84496
-7.23457
-12.1993
-10.7063
-25.1584
-26.6677
-30.527
-31.8016
-31.5513
-30.9862
-30.4098
-29.802
-29.1509
-28.4683
-27.7458
-27.0288
-26.3011
-25.4648
-24.4652
-23.1583
-21.1939
-17.7482
-10.7784
36.8164
36.843
36.87
36.9379
37.1285
37.5735
38.5077
40.3669
44.0063
68.4228
119.97
301.719
1608.85
263.994
-13.7892
-58.0769
-67.4046
-68.7787
-67.3896
-62.2302
-35.0076
-34.2159
-36.584
-36.9835
-36.1828
-35.1731
-34.2058
-33.2554
-32.3034
-31.3564
-30.442
-29.5283
-28.5689
-27.5694
-26.4374
-25.0172
-22.9364
-19.3292
-11.9399
32.9229
32.6901
32.0774
31.0592
29.585
27.5224
24.609
20.3137
13.4478
14.1237
4.48578
-93.762
-660.91
-652.555
-186.271
-77.0179
-53.252
-43.1604
-36.8954
-31.4268
-28.9938
-31.4142
-27.0265
-23.0523
-20.6518
-18.8283
-17.3591
-16.2132
-15.31
-14.5767
-13.9635
-13.4389
-12.9878
-12.5302
-12.0507
-11.4916
-10.748
-9.63159
-7.79731
-4.56265
29.3636
28.8831
27.6713
25.6424
22.6408
18.3388
12.162
3.12087
-10.5081
-26.3311
-70.2548
-155.041
-278.666
-292.863
-187.558
-110.073
-71.0313
-49.1061
-35.6787
-27.0568
-24.3968
-19.3871
-15.2048
-11.9158
-9.96011
-8.6563
-7.65133
-6.8686
-6.26652
-5.79574
-5.41493
-5.09534
-4.8222
-4.56147
-4.28927
-3.97631
-3.57804
-3.03123
-2.24919
-1.12072
26.4215
25.7357
24.0385
21.2017
17.0161
11.0689
2.69668
-9.12817
-26.0433
-50.8583
-84.3673
-125.385
-161.747
-168.441
-140.56
-103.683
-74.7445
-54.7602
-40.6078
-30.3014
-23.0686
-18.9497
-15.1287
-11.9355
-9.56616
-7.78343
-6.36992
-5.23483
-4.33155
-3.61373
-3.03892
-2.57254
-2.19218
-1.86942
-1.5836
-1.31623
-1.05218
-0.777958
-0.48718
-0.168825
24.3333
23.5072
21.4738
18.0937
13.1432
6.20469
-3.32893
-16.2389
-33.4353
-55.7609
-82.9965
-112.094
-135.405
-141.362
-126.873
-102.043
-78.169
-59.4551
-45.2578
-34.3439
-26.0171
-19.8739
-15.129
-11.3633
-8.47945
-6.31545
-4.67832
-3.42881
-2.47554
-1.75017
-1.19682
-0.772477
-0.445468
-0.191295
0.00719185
0.160286
0.269698
0.328528
0.321028
0.236606
23.2558
22.3544
20.1521
16.503
11.1853
3.79792
-6.20213
-19.4228
-36.3916
-57.2232
-80.9115
-104.36
-122.063
-127.659
-118.763
-100.164
-79.6174
-61.7967
-47.5686
-36.3352
-27.5272
-20.7727
-15.6489
-11.7154
-8.71317
-6.44764
-4.73478
-3.42683
-2.42227
-1.65015
-1.05645
-0.598812
-0.246014
0.023638
0.224467
0.363788
0.439596
0.442258
0.363214
0.227989
50.5811
51.2018
52.6836
55.0488
58.3085
62.5035
67.6483
73.6314
80.1198
86.441
91.4921
93.8099
92.0461
85.862
76.4702
65.8195
55.2823
45.4718
36.7166
29.2268
23.0467
18.0839
14.2
11.2392
8.96974
7.19139
5.79046
4.69854
3.85616
3.20982
2.71454
2.33033
2.02649
1.7787
1.57375
1.39002
1.19915
0.975048
0.681655
0.274639
49.7551
50.3589
51.7917
54.0875
57.2827
61.4546
66.6719
72.9013
79.8949
87.0256
93.0724
96.0781
93.9757
86.3796
75.5352
64.1038
53.2288
43.2577
34.5157
27.1843
21.2066
16.4263
12.7422
10.0473
8.02076
6.43007
5.17289
4.18657
3.41183
2.80476
2.33225
1.96048
1.66126
1.41999
1.22257
1.05529
0.900417
0.731655
0.514722
0.204607
48.1409
48.6983
50.0163
52.1445
55.1624
59.2092
64.456
71.034
78.9135
87.6756
95.989
100.752
97.5834
86.2286
72.392
59.8064
48.4042
38.0654
29.2365
22.0518
16.2768
11.8194
9.01004
7.03878
5.38393
4.03611
3.02351
2.28776
1.74361
1.34181
1.04105
0.820512
0.668642
0.568577
0.505978
0.479545
0.486229
0.510515
0.509793
0.354668
45.8013
46.272
47.3856
49.2073
51.8519
55.5297
60.5384
67.2446
76.0434
87.229
99.1519
107.895
102.324
83.3014
65.823
52.8408
41.1992
30.993
22.6907
15.9207
9.24283
2.99801
2.95436
3.28036
2.59011
1.61072
0.771918
0.110799
-0.412725
-0.834285
-1.16456
-1.40724
-1.56805
-1.6604
-1.68431
-1.62306
-1.45821
-1.16504
-0.736724
-0.25396
42.8506
43.1894
43.9884
45.3205
47.3071
50.1981
54.3609
60.3437
68.9173
88.7997
110.022
131.263
125.775
84.2021
60.8036
47.5993
32.1999
20.2797
12.0945
6.47761
1.036
-13.081
-10.6009
-7.65426
-6.35752
-5.7699
-5.38996
-5.12369
-4.95913
-4.87281
-4.83181
-4.80621
-4.77281
-4.71719
-4.60742
-4.3929
-4.00789
-3.34869
-2.30543
-0.918246
39.4472
39.6171
39.9916
40.6294
41.6372
43.2022
45.6332
49.4432
55.5064
76.9201
104.28
149.535
168.401
28.4865
22.133
5.47276
-4.25712
-9.01291
-12.4133
-14.7175
-20.5576
-13.1915
-14.603
-16.4397
-16.9912
-16.9629
-16.8041
-16.6179
-16.402
-16.1531
-15.8724
-15.5439
-15.1907
-14.8056
-14.3252
-13.692
-12.7978
-11.4101
-9.0843
-5.06706
35.8204
35.782
35.6481
35.4377
35.1866
34.9366
34.7407
34.6627
34.7553
48.4359
59.8738
130.485
173.553
-689.762
-131.443
-94.0977
-69.4738
-63.2477
-58.3802
-54.5665
-66.6953
-39.9971
-37.752
-35.7107
-33.8435
-31.9865
-30.336
-28.9229
-27.6813
-26.5643
-25.5474
-24.6153
-23.7465
-22.8812
-21.9858
-20.9946
-19.7889
-18.0813
-15.2385
-9.62179
32.2264
31.97
31.2966
30.1781
28.5633
26.3138
23.1637
18.613
11.6765
9.91875
-12.0115
-80.8599
-304.288
-255.934
-106.809
-59.764
-39.4118
-29.7429
-23.9426
-19.1199
-10.9972
4.59775
1.72705
-1.97661
-3.58255
-4.29628
-4.73378
-5.03422
-5.22897
-5.34561
-5.4088
-5.44048
-5.43295
-5.35914
-5.20286
-4.93958
-4.50186
-3.7656
-2.57443
-0.985656
28.9523
28.4844
27.3062
25.3472
22.4837
18.4476
12.7771
4.68494
-7.28846
-26.0852
-50.1575
-104.507
-174.948
-186.964
-130.099
-83.7752
-57.248
-40.661
-29.7632
-21.8138
-11.4221
-2.16146
-2.89721
-4.21955
-4.18992
-3.69575
-3.21919
-2.82546
-2.49923
-2.23112
-2.01271
-1.83123
-1.67719
-1.53574
-1.37581
-1.17612
-0.912641
-0.554125
-0.113401
0.214283
26.2486
25.608
24.0193
21.3874
17.5526
12.1962
4.82287
-5.29876
-19.2084
-38.237
-63.1179
-91.7163
-116.181
-122.055
-105.886
-81.9713
-61.4423
-46.1661
-34.6726
-25.5766
-17.9432
-12.6496
-9.61593
-7.43498
-5.52104
-3.95024
-2.75893
-1.87162
-1.2067
-0.707452
-0.33259
-0.0493282
0.164735
0.33257
0.477336
0.611003
0.73819
0.849582
0.89322
0.701207
24.3316
23.5695
21.7027
18.6191
14.1537
7.98893
-0.325264
-11.3356
-25.6028
-43.4754
-64.4815
-86.3789
-103.563
-108.842
-99.9901
-83.0992
-65.7406
-51.2249
-39.6328
-30.3005
-22.7532
-16.8577
-12.3185
-8.95491
-6.42804
-4.50441
-3.04459
-1.93858
-1.09886
-0.46036
0.0247442
0.392881
0.671225
0.880577
1.03549
1.14323
1.20002
1.18619
1.05423
0.702734
23.3441
22.5184
20.5078
17.1992
12.4285
5.89084
-2.81669
-14.116
-28.3169
-45.3488
-64.2793
-82.7213
-96.6039
-101.521
-95.8432
-82.6728
-67.3282
-53.3278
-41.6614
-32.1233
-24.3913
-18.2579
-13.5198
-9.93477
-7.20632
-5.10034
-3.47167
-2.2179
-1.25635
-0.520702
0.0402726
0.465722
0.785401
1.02042
1.18398
1.28212
1.30911
1.24644
1.05738
0.681159
48.6483
49.128
50.2679
52.0753
54.5354
57.6512
61.3948
65.636
70.0755
74.1799
77.1537
78.0359
76.0324
71.035
63.8553
55.7205
47.5241
39.7213
32.5999
26.3817
21.1689
16.9461
13.6264
11.0634
9.05732
7.45228
6.16602
5.14648
4.34529
3.71658
3.2217
2.82849
2.51009
2.24369
2.00974
1.78765
1.55045
1.26595
0.893562
0.382344
47.8677
48.331
49.4217
51.1574
53.5371
56.5881
60.3129
64.6224
69.2549
73.6794
77.0064
78.0275
75.662
69.8755
62.0118
53.6118
45.3998
37.6446
30.6417
24.6285
19.6661
15.71
12.6825
10.3872
8.57926
7.11668
5.93751
4.99358
4.23629
3.62545
3.13091
2.72856
2.39749
2.1191
1.87674
1.65432
1.42942
1.17065
0.833606
0.361551
46.3461
46.7656
47.7442
49.3138
51.4994
54.3642
57.9669
62.3009
67.1972
72.1701
76.1722
77.432
74.0353
66.2738
57.1232
48.601
40.6393
33.0641
26.2889
20.6161
16.06
12.6282
10.3218
8.51945
6.91492
5.55618
4.49212
3.68229
3.06263
2.5848
2.2163
1.93238
1.71483
1.54847
1.4198
1.31811
1.22767
1.11867
0.93064
0.534112
44.1504
44.4918
45.2826
46.5606
48.3822
50.8432
54.0664
58.1528
63.0973
68.5859
73.5029
75.1792
69.8485