/*--------------------------------*- C++ -*----------------------------------*\
| =========                 |                                                 |
| \\      /  F ield         | OpenFOAM: The Open Source CFD Toolbox           |
|  \\    /   O peration     | Version:  2306                                  |
|   \\  /    A nd           | Website:  www.openfoam.com                      |
|    \\/     M anipulation  |                                                 |
\*---------------------------------------------------------------------------*/
FoamFile
{
    version     2.0;
    format      ascii;
    arch        "LSB;label=32;scalar=64";
    class       surfaceScalarField;
    location    "1.6";
    object      phi;
}
// * * * * * * * * * * * * * * * * * * * * * * * * * * * * * * * * * * * * * //

dimensions      [0 3 -1 0 0 0 0];

oriented        oriented;

internalField   nonuniform List<scalar> 
338621
(
24.9952
0.00209839
0.00141631
24.9877
0.00462311
0.00290687
24.9756
0.00748124
0.00459709
24.9586
0.010542
0.00663562
24.9354
0.0139228
0.0093372
24.9027
0.0200383
0.0128685
24.856
0.0296762
0.0173379
24.7928
0.0404531
0.0230433
24.7306
0.0324597
0.0301948
24.687
0.005494
0.0386621
24.658
-0.0186825
0.0482462
24.5835
0.0168371
0.0583779
24.6119
-0.0962098
0.0686145
24.7427
-0.208003
0.0779697
24.7853
-0.127911
0.0858609
24.8189
-0.125154
0.0920531
24.8491
-0.126576
0.0967649
24.8735
-0.124838
0.100598
24.8939
-0.123915
0.103687
24.9208
-0.133239
0.106307
24.9505
-0.138039
0.108353
24.9727
-0.132332
0.110161
24.9892
-0.128339
0.111816
25.0024
-0.126349
0.113205
25.0132
-0.125312
0.114475
25.0221
-0.124534
0.115625
25.0298
-0.124277
0.116571
25.0364
-0.123929
0.117299
25.0421
-0.123602
0.117899
25.0473
-0.12352
0.118347
25.0521
-0.123416
0.118631
25.0566
-0.123301
0.118734
25.061
-0.123112
0.118783
25.0651
-0.12287
0.118773
25.069
-0.122617
0.118681
25.0731
-0.122689
0.118552
25.0774
-0.122616
0.118358
25.0818
-0.122616
0.118186
25.0866
-0.122759
0.118004
-0.123329
0.117568
24.9951
0.00419965
0.00138507
24.9875
0.00940919
0.00281068
24.9751
0.0155172
0.00447607
24.9578
0.021364
0.00648999
24.9346
0.0280887
0.00916045
24.9051
0.0371688
0.0125751
24.8693
0.0486054
0.0170819
24.8234
0.0638395
0.0228643
24.7585
0.0675465
0.0301906
24.6833
0.0420391
0.0390897
24.6398
-0.024097
0.0494852
24.6259
-0.0292036
0.0605312
24.6643
-0.206328
0.0722996
24.7489
-0.374834
0.0828553
24.8303
-0.300294
0.0914111
24.9001
-0.292537
0.0979328
24.9538
-0.282917
0.102851
24.9971
-0.274827
0.106758
25.0429
-0.27954
0.109911
25.0772
-0.279883
0.112382
25.0972
-0.272496
0.114358
25.111
-0.262049
0.115972
25.1197
-0.254595
0.117507
25.1261
-0.251609
0.118862
25.1305
-0.249798
0.120095
25.1336
-0.248865
0.121163
25.1354
-0.24813
0.122107
25.1368
-0.248243
0.122868
25.1382
-0.248499
0.123483
25.1393
-0.248492
0.123948
25.1402
-0.248649
0.124267
25.1409
-0.248447
0.124452
25.1419
-0.248644
0.124549
25.143
-0.248496
0.124567
25.1442
-0.248328
0.124516
25.1455
-0.248476
0.124459
25.1471
-0.248518
0.124318
25.149
-0.248764
0.12421
25.1517
-0.249489
0.124043
-0.249843
0.123661
24.9954
0.0060015
0.00131227
24.9879
0.0143259
0.00266454
24.976
0.0231838
0.00421537
24.9581
0.0331214
0.00620649
24.9338
0.0437387
0.00877818
24.9026
0.0564348
0.0121314
24.8625
0.0722227
0.0166586
24.813
0.0909879
0.0225427
24.7437
0.106938
0.030258
24.6451
0.100779
0.0401075
24.5676
0.00563064
0.0521479
-0.00572054
0.00605459
-0.00431934
24.6634
-0.0383696
0.0659662
-0.0581234
-0.0370587
-0.0570646
24.5557
-0.0108052
0.0789487
-0.0951593
0.0221902
-0.0934149
24.7294
-0.18192
0.0910797
-0.123694
-0.211642
-0.121943
24.8244
-0.128591
0.0999559
-0.121146
-0.126461
-0.118806
24.887
-0.117534
0.106403
-0.11551
-0.115042
-0.113284
24.9424
-0.113506
0.111255
-0.113656
-0.111514
-0.110945
25.0093
-0.115883
0.115154
-0.114782
-0.113694
-0.112593
25.053
-0.112172
0.11828
-0.110722
-0.110037
-0.108698
25.0791
-0.10823
0.120535
-0.107132
-0.106133
-0.10505
25.0971
-0.412645
0.122058
25.1104
-0.398592
0.123277
25.1178
-0.386713
0.124647
25.1229
-0.382735
0.126053
25.1265
-0.380771
0.127381
25.1286
-0.379552
0.128532
25.1296
-0.378616
0.129497
25.1303
-0.379235
0.130282
25.1302
-0.379298
0.130889
25.1305
-0.380083
0.131326
25.1304
-0.380197
0.131597
25.1306
-0.380343
0.131724
25.1306
-0.38029
0.131682
25.1307
-0.380318
0.131645
25.1307
-0.379785
0.131472
25.1307
-0.379825
0.131315
25.1312
-0.380073
0.131086
25.132
-0.380436
0.130893
25.1329
-0.381101
0.130659
-0.381961
0.130259
24.9957
0.00812339
0.00120166
24.989
0.0185638
0.00244534
24.9774
0.0310462
0.00385338
24.9606
0.0442337
0.00573575
24.936
0.0602377
0.00813242
24.9015
0.0796868
0.0113458
24.8558
0.102368
0.0157265
24.7974
0.128046
0.0215893
24.7303
0.144577
0.029556
6.14109
0.0371112
0.0403158
0.054469
0.0384704
0.0548421
6.16317
6.14044
6.16133
6.12338
0.0174671
0.00589634
-6.11015
6.09784
-0.0337881
0.0077466
-6.10165
6.12311
-0.0418479
0.00960084
-6.11541
6.14248
-0.220416
0.0114429
-6.1614
6.17594
-0.155848
0.012737
-6.18948
6.20047
-0.14208
0.0135586
-6.21209
6.2267
-0.142376
0.0142497
-6.23896
6.24647
-0.138252
0.0148515
-6.25254
6.25799
-0.132965
0.0153295
-6.2626
6.26679
-0.128123
0.0156997
25.111
-0.140715
0.130103
-0.141664
-0.138661
-0.140046
-6.27054
-6.2754
-6.27101
-6.27574
25.1158
-0.534024
0.1306
25.1169
-0.519933
0.132111
25.1175
-0.517027
0.133725
25.1157
-0.514332
0.135265
25.1124
-0.512876
0.136654
25.109
-0.513049
0.137864
25.1047
-0.513848
0.13887
25.1001
-0.514288
0.139644
25.0951
-0.515343
0.140171
25.0903
-0.515822
0.140446
25.0853
-0.515847
0.140489
25.0801
-0.515356
0.14029
25.0749
-0.515201
0.140051
25.0698
-0.514274
0.139622
25.0644
-0.513572
0.139185
25.0589
-0.513246
0.138658
25.0534
-0.513015
0.138097
25.0488
-0.514076
0.137504
-0.514508
0.136713
24.9973
0.00861428
0.00105279
24.9914
0.0223297
0.002148
24.9817
0.037416
0.00338274
24.9663
0.0546443
0.00505193
24.9434
0.0759936
0.00717966
24.9099
0.103201
0.0100487
24.8598
0.138607
0.0139649
24.7853
0.183323
0.0193994
6.17104
0.233755
0.0268554
6.16369
6.17091
6.16371
6.15483
0.0493114
0.00401546
6.12907
0.00564583
-6.15724
0.0203254
0.0119313
0.0117907
0.0203876
-0.0419159
-6.076
6.04149
0.00766308
-0.00191754
0.00425186
0.00398659
-0.00185584
0.0223915
-6.04085
6.05915
0.00980785
0.0292185
-0.0401195
-0.0402289
-0.019087
0.0421019
-6.11178
6.13749
0.0119628
-0.051912
-0.0666237
-0.104535
-0.0523142
0.237698
-6.17041
6.18274
0.0128395
-0.0502348
-0.054123
-0.0535062
-0.0505544
0.183243
-6.19473
6.20841
0.0135019
-0.0503412
-0.0495864
-0.0495267
-0.050386
0.172652
-6.22222
6.23428
0.014231
-0.0484753
-0.0483996
-0.0483394
-0.0485667
0.167469
-6.24419
6.25173
0.0149593
-0.0458467
-0.0457636
-0.0456321
-0.0459961
0.160708
-6.25842
6.26329
0.015607
-0.0433476
-0.0436016
-0.0434168
-0.0435482
0.153426
-6.26762
6.26995
0.0161628
-0.0411474
-0.0416809
-0.0414426
-0.0413985
0.147176
-6.27315
6.27535
-0.160095
0.0171801
25.0635
-0.62663
0.126273
-6.2761
-6.26974
-6.27724
-6.27411
25.0362
-0.620309
0.127695
25.0057
-0.615272
0.128701
24.9744
-0.612184
0.129179
24.9441
-0.611983
0.129413
24.9149
-0.613314
0.129465
24.887
-0.615208
0.129296
24.8611
-0.6173
0.128862
24.8366
-0.618971
0.128114
24.8139
-0.620167
0.127051
24.793
-0.620651
0.125698
24.7738
-0.620228
0.124084
24.7555
-0.619258
0.122395
24.7385
-0.617923
0.120596
24.7224
-0.616288
0.118798
24.7071
-0.614926
0.116997
24.693
-0.614071
0.115178
24.6801
-0.614471
0.113326
-0.617098
0.111304
24.9999
0.00718213
0.000864736
24.9965
0.0239044
0.00178218
24.989
0.0421756
0.00281437
24.9772
0.062316
0.00413462
24.9596
0.0878028
0.00587893
24.9324
0.122221
0.00817651
24.8892
0.170664
0.0112581
24.8165
0.240471
0.0155766
6.17049
0.347967
0.0214294
6.17006
6.17048
6.16991
-0.0653414
6.14473
0.0878859
0.00321872
-0.019715
-1.52747
1.52228
0.0242893
0.00060944
-0.0195432
-1.50394
1.49178
0.0309338
0.000777064
-1.46823
0.0521664
1.47817
-0.0632514
0.00114645
-1.52992
0.0843427
1.53878
-0.0942834
0.00107786
-1.53725
0.060224
-0.0634333
0.0012943
1.53917
-1.54822
0.0581855
-0.0624491
0.00176711
1.55072
0.0557956
-1.55636
1.55781
-0.0593398
0.00209554
0.0519042
-1.5608
1.56138
-0.0547864
0.00230392
0.0491244
-1.5621
1.5622
-0.051663
0.00243976
0.0466106
-1.56154
1.5611
-0.0487633
0.00258658
-1.55396
0.176494
6.15599
-0.175627
0.0234332
-1.53707
-1.55396
-1.53529
23.8744
-0.70979
0.0702825
-6.09992
-5.7995
-6.12895
-5.83318
23.8797
-0.696112
0.0705773
23.8838
-0.689155
0.0696914
23.8886
-0.684868
0.0679653
23.8937
-0.682915
0.0657947
23.8994
-0.682378
0.0633846
23.9059
-0.682575
0.0608499
23.9133
-0.682932
0.0582742
23.9216
-0.683055
0.0557286
23.9308
-0.682627
0.0532733
23.9407
-0.681461
0.0509496
23.9513
-0.679668
0.0487539
23.9626
-0.677225
0.0467488
23.9741
-0.674308
0.0448523
23.9862
-0.671364
0.0430214
23.9985
-0.668428
0.0411747
24.011
-0.665797
0.0391912
24.0232
-0.663628
0.0369378
-0.661533
0.0344108
25.003
0.00330766
0.000682817
25.0035
0.0220302
0.00136293
25.0006
0.0429491
0.00214883
24.9948
0.0649892
0.00307823
24.986
0.0923807
0.00427191
24.9724
0.13002
0.00582148
24.9526
0.182687
0.00774843
24.9214
0.261481
0.0102322
6.213
0.388315
0.0132333
6.22111
6.21275
6.22096
-0.106263
6.19749
0.119843
0.0019275
-0.0394358
-1.54191
1.53572
0.0452815
0.000345408
-0.0821925
-1.50594
1.48713
0.100454
0.000547687
0.00450057
-0.0747009
0.0749032
-0.00475236
4.94695e-05
-0.0214043
0.00044969
0.0209169
1.73586e-06
3.60153e-05
-0.196178
0.00847895
-0.0208003
-0.00203569
0.210535
-1.19124
0.0622214
-0.0807076
-0.00508723
1.21481
0.0583047
-1.26267
1.27254
-0.0649854
-0.00319683
0.0564548
-1.30112
1.31029
-0.0632179
-0.0024086
0.0528025
-1.3339
1.34134
-0.0579227
-0.00231484
0.05066
-1.36109
1.36839
-0.0553997
-0.00256145
-1.40744
0.210969
5.85313
-0.220859
-0.0163979
-1.50002
-1.41831
-1.50107
24.0318
-0.655183
-0.103725
-5.88967
-6.16724
-5.76298
-6.16278
24.0703
-0.631587
-0.103032
24.1063
-0.622677
-0.102471
24.1412
-0.617588
-0.102226
24.1743
-0.613879
-0.102046
24.2051
-0.611449
-0.101771
24.2338
-0.609894
-0.10137
24.2602
-0.608625
-0.100687
24.2842
-0.607388
-0.0997106
24.306
-0.605962
-0.098436
24.3257
-0.604255
-0.0969366
24.3437
-0.602372
-0.0952351
24.3603
-0.600308
-0.0935296
24.376
-0.598152
-0.0918484
24.3909
-0.595953
-0.0903789
24.4058
-0.594012
-0.0892557
24.4206
-0.592078
-0.0885789
24.4354
-0.589919
-0.0884922
-0.586656
-0.0890892
25.0047
-0.00152402
0.000452487
25.0098
0.0159268
0.000928586
25.0147
0.0366926
0.00143123
25.0185
0.05914
0.00199236
25.0203
0.0879807
0.00258924
25.0253
0.121737
0.00328023
25.0373
0.166676
0.00391993
25.0633
0.231119
0.00432997
6.27418
0.332396
0.00419784
6.28194
6.27455
6.28426
-0.111854
6.28192
0.103642
0.000471753
-0.0446924
-1.57788
1.57956
0.0429679
4.21071e-05
-0.0845299
-1.59793
1.61276
4.399e-05
0.0696612
-0.0268905
-1.71215
1.75165
0.000332392
0.0586045
-0.0222645
-0.0269845
-0.0222899
0.0985697
-1.71304
1.68309
-0.000236599
-0.0683735
0.100909
-1.60912
-0.00135041
1.59866
-0.0890987
0.0770521
-1.58443
-0.00170229
1.58157
-0.0724985
0.0560978
-1.57706
1.57614
-0.0532854
-0.00190135
0.0568889
-1.57443
1.57264
-0.053093
-0.00200031
0.0512591
-1.57224
1.57159
-0.0485675
-0.00204072
0.0476485
-1.57063
1.57012
-0.0450913
-0.00205038
-1.56779
0.178095
6.26478
-0.156985
-0.0161389
-1.56729
-1.56739
-1.56729
25.0703
-0.534453
-0.115514
-6.26852
-6.26846
-6.26975
-6.26877
25.0719
-0.51721
-0.115962
25.0698
-0.504181
-0.116446
25.067
-0.497579
-0.11711
25.0644
-0.493311
-0.118033
25.0624
-0.490356
-0.119079
25.0608
-0.488072
-0.12022
25.0593
-0.485865
-0.12127
25.0584
-0.484278
-0.122171
25.0577
-0.48239
-0.12285
25.057
-0.480264
-0.123326
25.0566
-0.478569
-0.123449
25.0564
-0.476658
-0.123432
25.056
-0.47451
-0.123206
25.056
-0.473001
-0.122968
25.0562
-0.471374
-0.122815
25.0567
-0.469719
-0.122848
25.0577
-0.467733
-0.123195
-0.465567
-0.1238
25.0056
-0.00640834
0.000238164
25.0139
0.0071497
0.000512016
25.0267
0.0231227
0.00075384
25.0378
0.0470509
0.000943385
25.0529
0.0717538
0.00102818
25.0763
0.0974418
0.000904217
25.1141
0.128364
0.000407545
25.1773
0.168672
-0.000906963
6.32031
0.231086
-0.00351706
6.3184
6.32461
6.31872
-0.088829
6.33641
0.0734491
-0.000732623
-0.0332761
6.41295
0.0881827
-0.00160178
-0.0344856
-0.0334911
-0.0341919
-6.36408
-0.0335377
6.51689
0.0763809
-0.00325194
-0.026291
-0.033552
-0.0263444
-6.4703
-0.00755546
-6.54758
6.51386
-0.00517391
-0.00573233
0.0148297
-0.00783394
0.0451893
0.0452173
-6.53536
6.51321
-0.122655
-0.00883783
0.0390709
0.0359342
0.0334166
0.05459
-6.44859
6.41103
-0.175897
-0.011184
0.0551582
0.0569237
0.0579546
0.0557079
-6.3713
6.33947
-0.17327
-0.012716
0.0543978
0.0546871
0.053017
0.0458361
-6.32173
6.31087
-0.154698
-0.013793
0.0448901
0.0446443
0.0439867
0.043798
-6.30248
6.29681
-0.153616
-0.0144741
0.0435685
0.0433092
0.0431011
0.0408207
-6.29247
6.28714
-0.1409
-0.0148245
0.040327
0.0402654
0.0396506
0.037939
-6.28286
6.27735
-0.129064
-0.0149665
0.0374772
0.0373605
0.0367625
0.140327
-6.27569
6.27365
-0.123181
-0.015107
25.0723
-0.40107
-0.122678
-6.27092
-6.27089
-6.27102
-6.27016
25.0638
-0.385982
-0.122703
25.0595
-0.376946
-0.122907
25.0564
-0.371295
-0.123238
25.0544
-0.367691
-0.123617
25.053
-0.364984
-0.12396
25.0522
-0.363023
-0.124222
25.052
-0.361339
-0.124368
25.052
-0.359817
-0.124374
25.0522
-0.358345
-0.124236
25.0525
-0.356655
-0.124
25.0531
-0.355473
-0.123633
25.0534
-0.35379
-0.123172
25.0544
-0.352727
-0.12275
25.0552
-0.351393
-0.122407
25.0559
-0.349928
-0.12219
25.0573
-0.348965
-0.122193
25.0599
-0.347819
-0.122503
-0.346892
-0.123164
25.0062
-0.0112359
0.000101976
25.0158
-0.00266265
0.000187111
25.0244
0.0142731
0.00019491
25.0407
0.0306116
0.000101674
25.0671
0.0455364
-0.000248756
25.1003
0.0650601
-0.000991332
25.1477
0.083183
-0.00235822
25.2142
0.106895
-0.00481162
25.3231
0.130976
-0.00901736
25.4285
0.14524
-0.0158977
-0.0611856
-0.056964
-0.0589061
-0.0578525
25.5774
0.133516
-0.0263658
-0.0608746
-0.0644214
-0.06258
-0.0684607
25.7125
0.0563512
-0.0410939
-0.0423696
-0.0285091
-0.0468214
-0.032924
25.5909
-0.154775
-0.0585839
0.0208796
0.123812
0.0188432
0.171043
25.4987
-0.235857
-0.0769296
0.0828437
0.116359
0.0982545
0.107177
25.4306
-0.245647
-0.0919045
0.0819981
0.147181
0.030602
0.145454
25.3459
-0.348629
-0.102676
0.133808
0.136572
0.132006
0.13348
25.2628
-0.317568
-0.109437
0.127213
0.130734
0.124566
0.127515
25.1974
-0.327126
-0.11368
0.130034
0.126969
0.126433
0.122866
25.1545
-0.305949
-0.116323
0.119916
0.116796
0.116226
0.112339
25.1305
-0.287175
-0.117975
0.10938
0.109238
0.104457
0.106132
25.1107
-0.273192
-0.118987
0.104888
0.104299
0.102019
0.100805
25.0929
-0.263874
-0.119437
25.0821
-0.25527
-0.11983
25.075
-0.249465
-0.120357
25.0698
-0.245134
-0.121003
25.0659
-0.242176
-0.121563
25.0634
-0.240411
-0.122071
25.0611
-0.238286
-0.122492
25.0597
-0.237127
-0.122808
25.0585
-0.235592
-0.123015
25.0579
-0.234616
-0.123109
25.0578
-0.23344
-0.123113
25.0574
-0.232026
-0.123053
25.0576
-0.231138
-0.122878
25.0575
-0.229807
-0.122774
25.0576
-0.228792
-0.122689
25.0584
-0.228049
-0.122707
25.0597
-0.227328
-0.12289
25.061
-0.225818
-0.123301
-0.224707
-0.123973
25.0064
-0.0157592
-2.20681e-05
25.0092
-0.00547407
-4.57774e-05
25.0166
0.00703801
-0.000190765
25.0358
0.011789
-0.000465622
25.061
0.0213615
-0.00109217
25.0901
0.0380281
-0.00224412
25.1379
0.0393341
-0.00414497
25.1992
0.0525886
-0.00719205
25.2786
0.0632952
-0.0120273
25.3749
0.0677265
-0.0192174
25.4826
0.054617
-0.0293017
25.5637
0.0173386
-0.0426459
25.5419
-0.0755894
-0.0580169
25.5281
-0.149229
-0.0734262
25.406
-0.0374736
-0.0865616
25.3242
-0.170562
-0.0966347
25.2747
-0.164967
-0.103334
25.2136
-0.158241
-0.107938
25.1689
-0.150275
-0.110965
25.1368
-0.142071
-0.113067
25.1131
-0.134879
-0.114586
25.0945
-0.129639
-0.115606
25.0811
-0.125417
-0.116458
25.0714
-0.122525
-0.117187
25.0645
-0.120349
-0.117867
25.0596
-0.118979
-0.118335
25.0557
-0.117733
-0.118704
25.0533
-0.116951
-0.118947
25.0517
-0.116531
-0.118991
25.0507
-0.11567
-0.118914
25.0501
-0.115344
-0.11871
25.0496
-0.114543
-0.118416
25.0499
-0.114244
-0.118025
25.0499
-0.11352
-0.117622
25.0505
-0.113213
-0.117258
25.0512
-0.112478
-0.116946
25.0521
-0.112274
-0.116739
25.0534
-0.11186
-0.116702
25.0558
-0.111285
-0.116905
-0.111701
-0.117431
24.9867
-6.86034e-05
24.9813
-0.000112904
24.9886
-0.000335751
25.001
-0.000635438
25.0236
-0.00141125
25.0642
-0.00268125
25.108
-0.00475133
25.1683
-0.00802589
25.2442
-0.0130484
25.3316
-0.02017
25.4153
-0.029751
25.4738
-0.0419033
25.453
-0.0555777
25.3723
-0.0692549
25.4155
-0.0812577
25.3355
-0.0910643
25.2681
-0.0978476
25.2121
-0.102431
25.1674
-0.105597
25.1332
-0.107879
25.1079
-0.109611
25.0892
-0.110907
25.0757
-0.111925
25.0659
-0.112714
25.059
-0.113443
25.054
-0.113988
25.0507
-0.114404
25.0485
-0.114738
25.0468
-0.114814
25.0459
-0.114797
25.0452
-0.114683
25.0451
-0.11443
25.045
-0.114089
25.0452
-0.113748
25.0455
-0.113484
25.0463
-0.113258
25.0471
-0.113124
25.0484
-0.113146
25.0505
-0.1134
-0.113979
24.996
0.0010391
0.00270835
24.9897
0.0037994
0.00551886
24.9793
0.00642201
0.00876515
24.9637
0.00967307
0.0127668
24.9428
0.0127187
0.0178823
24.9139
0.0177608
0.024563
24.8723
0.0264761
0.0332216
24.8151
0.0370231
0.0442824
24.7593
0.0293153
0.0580414
24.7223
0.00245749
0.0747696
24.6962
-0.0174384
0.0936851
24.6327
0.00996084
0.114123
24.6608
-0.0918191
0.134588
24.7792
-0.191891
0.153684
24.8133
-0.115989
0.169707
24.8389
-0.11418
0.182152
24.8629
-0.117782
0.191574
24.8821
-0.116919
0.198924
24.8982
-0.116855
0.204772
24.9244
-0.129295
0.209533
24.9504
-0.13101
0.213367
24.9704
-0.126451
0.216642
24.986
-0.123344
0.219493
24.999
-0.121764
0.221985
25.0098
-0.120482
0.224166
25.0192
-0.119919
0.226051
25.0274
-0.119252
0.22764
25.0345
-0.118718
0.228928
25.0409
-0.118512
0.229955
25.0469
-0.118342
0.23075
25.0521
-0.117925
0.231312
25.0566
-0.117497
0.231677
25.0611
-0.117566
0.231854
25.0656
-0.117615
0.231958
25.0695
-0.117164
0.231922
25.0735
-0.117292
0.23187
25.0774
-0.117203
0.231649
25.0814
-0.117257
0.23144
25.086
-0.117653
0.231052
-0.118003
0.229982
24.9961
0.00217067
0.00264049
24.9897
0.00766581
0.00538215
24.9787
0.0134908
0.00856448
24.9631
0.0194702
0.0125125
24.9417
0.0260445
0.017584
24.9146
0.0337788
0.0242527
24.8818
0.0440457
0.0329684
24.8393
0.0589588
0.0442707
24.7764
0.0648973
0.0586505
24.7001
0.0427284
0.0764653
24.6559
-0.0194608
0.0972874
24.5927
0.0151568
0.120275
24.6277
-0.196069
0.143377
24.761
-0.405325
0.164707
24.8438
-0.287893
0.181973
24.9135
-0.280015
0.195062
24.9648
-0.270511
0.204934
25.0052
-0.26277
0.212481
25.05
-0.270087
0.218434
25.0815
-0.271465
0.223082
25.0995
-0.261479
0.226777
25.112
-0.252865
0.229866
25.1201
-0.246503
0.232549
25.126
-0.243659
0.234841
25.1307
-0.241904
0.236828
25.1337
-0.240374
0.238563
25.1357
-0.239256
0.240085
25.1377
-0.239261
0.2414
25.1391
-0.238993
0.242513
25.1401
-0.23882
0.243423
25.1413
-0.238923
0.244132
25.1426
-0.239009
0.244649
25.1433
-0.238818
0.245043
25.1441
-0.239086
0.245284
25.1454
-0.23936
0.245419
25.1463
-0.239184
0.245458
25.1476
-0.239622
0.245396
25.1496
-0.240225
0.24523
25.1515
-0.24051
0.244931
-0.241415
0.2439
24.9961
0.00341656
0.00250228
24.9898
0.0115468
0.00511149
24.9789
0.0206092
0.00815889
24.9627
0.0301191
0.0119692
24.9402
0.0407534
0.016914
24.9105
0.0525182
0.0234963
24.8727
0.0668082
0.03227
24.8262
0.084711
0.0439381
24.7604
0.102443
0.0593132
24.6652
0.0998788
0.0791157
24.5856
0.00637687
0.103535
-0.0030733
0.00714909
-0.000750984
24.7172
-0.0361366
0.13107
-0.0565585
-0.033918
-0.0537231
24.5749
0.0234438
0.158682
-0.0932834
0.0268416
-0.0892692
24.7394
-0.212858
0.183961
-0.122478
-0.208582
-0.117662
24.8333
-0.127093
0.202442
-0.119555
-0.122371
-0.114285
24.8952
-0.116113
0.215621
-0.114322
-0.1114
-0.108929
24.9494
-0.112759
0.225469
-0.111957
-0.107702
-0.10654
25.0142
-0.114653
0.232984
-0.113505
-0.109489
-0.108117
25.0561
-0.111155
0.238773
-0.109964
-0.106152
-0.105483
25.0817
-0.107886
0.243076
-0.106442
-0.103643
-0.101847
25.0999
-0.403972
0.246223
25.1122
-0.390766
0.248801
25.1199
-0.38047
0.250916
25.125
-0.376127
0.253354
25.1285
-0.37327
0.255271
25.1305
-0.370987
0.257133
25.1317
-0.369281
0.25824
25.1319
-0.368543
0.259382
25.1317
-0.368229
0.260316
25.1321
-0.368914
0.261054
25.1316
-0.368452
0.261604
25.1313
-0.369048
0.261989
25.1318
-0.369548
0.261996
25.1316
-0.369652
0.262393
25.1313
-0.370106
0.262443
25.1316
-0.37051
0.262417
25.1319
-0.371147
0.262295
25.1324
-0.371892
0.26205
25.1337
-0.372825
0.261672
-0.37375
0.260594
24.9969
0.00442059
0.00229202
24.9909
0.0154241
0.00469606
24.9801
0.0278401
0.00751706
24.964
0.0410295
0.0110718
24.9412
0.0561916
0.0157376
24.9084
0.0750511
0.0220307
24.8637
0.097004
0.0306353
24.8056
0.122454
0.0424101
24.7376
0.141934
0.0585845
6.14286
0.0382791
0.0807166
0.0540424
0.0388093
0.0547279
6.16278
6.14339
6.16264
-0.0116857
6.12541
0.0178289
0.0177362
-0.0154798
-6.11306
6.1008
-0.0317933
0.0234631
-0.0193429
-6.10441
6.09694
0.0209357
0.0293721
-0.0230906
-6.11225
6.14458
-0.257176
0.0351196
-0.0257509
-6.16301
6.1775
-0.155026
0.0392356
-0.0274722
-6.19115
6.20242
-0.14178
0.0418763
-0.0287924
-6.21376
6.22833
-0.142493
0.0439169
-0.0298881
-6.24135
6.24872
-0.137778
0.0455922
-0.0307674
-6.25472
6.26009
-0.132684
0.0468811
-0.0314069
-6.26398
6.26812
-0.128508
0.0478627
25.1142
-0.141647
0.272218
-0.142052
-0.141195
-0.139234
-6.27208
-6.27634
-6.27174
-6.27612
25.1211
-0.541395
0.274259
25.123
-0.524828
0.274513
25.1235
-0.519206
0.276305
25.1217
-0.514322
0.278107
25.1177
-0.510626
0.280199
25.1136
-0.508879
0.281607
25.1088
-0.507875
0.283009
25.1035
-0.507458
0.284102
25.0978
-0.50787
0.28486
25.0924
-0.507929
0.285292
25.0869
-0.508492
0.285438
25.0812
-0.508648
0.285079
25.0757
-0.509168
0.285071
25.0702
-0.509541
0.284593
25.0649
-0.510134
0.28411
25.0592
-0.510229
0.283402
25.0539
-0.510953
0.282512
25.0497
-0.512467
0.281333
-0.513138
0.279235
24.9985
0.0039274
0.00201119
24.9935
0.0185105
0.00412684
24.9841
0.0341209
0.0066146
24.9695
0.051023
0.0097606
24.9475
0.0716998
0.013915
24.9153
0.0981884
0.0193125
24.8665
0.132706
0.0274128
24.7935
0.17682
0.038379
6.17352
0.227857
0.0540175
6.16624
6.17432
6.16663
-0.00797246
6.15819
0.0494515
0.0121473
-0.0112841
6.13203
0.017242
-6.16098
0.0203571
0.0115369
0.0203649
0.0114325
-0.0407171
-0.0154186
-6.07865
6.04466
0.0237204
-0.00159971
0.00375131
-0.00191146
0.00400624
0.0214269
-0.0199866
-6.04269
6.05619
0.0309326
0.0521719
-0.0403764
0.0516275
-0.0399238
-0.0480447
-0.0243084
-6.09664
6.13794
0.0377195
-0.0516404
-0.129441
-0.052197
-0.128938
0.307389
-0.0261707
-6.16919
6.18122
0.0408847
-0.0508659
-0.0542098
-0.051247
-0.0537705
0.183312
-0.027149
-6.19538
6.21014
0.0424215
-0.051326
-0.0508501
-0.051555
-0.0506266
0.174267
-0.0282142
-6.2244
6.23662
0.0440065
-0.0490906
-0.049356
-0.049321
-0.0491659
0.168796
-0.0293541
-6.2465
6.25393
0.0456072
-0.0459714
-0.0463251
-0.0464633
-0.0460954
0.161054
-0.0303825
-6.26065
6.26526
0.0470029
-0.0435945
-0.0439698
-0.0438553
-0.0437148
0.153842
-0.0311357
-6.26963
6.27197
0.0480846
-0.0416131
-0.041944
-0.0416025
-0.0417064
0.147554
-6.27454
-0.031109
6.27656
-0.161421
0.0488571
25.0695
-0.664236
0.281007
-6.27765
-6.27223
-6.27845
-6.27306
25.0428
-0.648052
0.277564
25.0138
-0.635802
0.274318
24.9837
-0.626235
0.271151
24.9544
-0.620296
0.26835
24.9257
-0.616587
0.265915
24.8983
-0.614154
0.262993
24.8721
-0.612732
0.260259
24.8469
-0.611935
0.257419
24.8232
-0.61166
0.254474
24.801
-0.611801
0.25124
24.78
-0.612164
0.24853
24.7602
-0.612547
0.245591
24.7418
-0.613271
0.242783
24.7242
-0.61389
0.240103
24.7082
-0.614607
0.237422
24.6934
-0.615568
0.234573
24.6802
-0.617326
0.231354
-0.620724
0.227176
25.0021
0.000341658
0.00169445
24.9999
0.0191575
0.00342645
24.9922
0.0391935
0.00547141
24.9802
0.0592284
0.00804113
24.9627
0.0837558
0.0114079
24.9367
0.117014
0.0154554
24.8944
0.164226
0.0222455
24.823
0.232999
0.0310242
6.17248
0.34006
0.043822
6.17159
6.17281
6.17173
-0.00633384
-0.0644392
6.14685
0.0865725
0.00985193
-0.00207346
-0.0193808
-1.52788
1.5226
0.0239922
0.00274483
-0.00303328
-0.0188525
-1.50403
1.49143
0.0306088
0.00387
-0.00428162
-1.4688
0.0524926
1.47876
-0.0636682
0.0054493
-0.00543248
-1.52809
0.154045
1.53951
-0.16713
0.00704581
-0.005223
-1.53635
0.0611252
-0.065266
1.53854
0.00714985
-1.5483
-0.00477628
0.0599355
-0.0644757
0.00643505
1.55118
-0.00457133
0.0566811
-1.55714
1.55865
-0.059835
0.00621051
-0.00467692
0.0520471
-1.56181
1.56245
-0.0542305
0.00622241
-0.00491542
0.0488242
-1.56343
1.56363
-0.0503496
0.00623116
-0.00511853
0.0459723
-1.56344
1.56317
-0.0468078
0.006224
-1.55697
-0.0196016
0.174511
6.16545
-0.163202
0.0348203
-1.5415
-1.55568
-1.53782
23.8113
-0.777446
0.142624
-6.10304
-5.78874
-6.09435
-5.78432
23.8364
-0.745491
0.142942
23.8577
-0.729089
0.141634
23.8767
-0.715881
0.138674
23.8926
-0.705503
0.135054
23.9054
-0.697223
0.131231
23.9162
-0.690632
0.126549
23.9254
-0.68546
0.121804
23.9338
-0.681534
0.116895
23.9421
-0.67861
0.111965
23.9508
-0.676481
0.106938
23.9598
-0.675047
0.102651
23.9695
-0.674041
0.0984615
23.9798
-0.673335
0.0946534
23.9906
-0.672795
0.0911315
24.0017
-0.672322
0.0877329
24.0131
-0.67186
0.0841476
24.0242
-0.67139
0.0798433
-0.670892
0.0737741
25.0089
-0.000829242
0.00127844
25.0095
0.0172778
0.00261863
25.0061
0.0407023
0.00414672
24.9992
0.0632047
0.0060044
24.9891
0.0897665
0.00834747
24.9755
0.125633
0.0108812
24.9559
0.176209
0.0153448
24.9255
0.253226
0.0204995
6.21359
0.379743
0.0275259
6.2219
6.21371
6.22231
-0.0038092
-0.104679
6.19807
0.118057
0.00595322
-0.00118978
-0.0392967
-1.54189
1.53575
0.0450648
0.00156809
-0.00161783
-0.0821642
-1.50572
1.48732
0.100212
0.00196061
-0.000151772
0.00450708
-0.0747992
0.0750383
-0.004754
0.000158832
-0.00386189
-0.232951
0.0184703
-0.027801
0.00143719
0.244708
-1.20648
-0.00124539
0.0685216
-0.086057
-0.00272328
1.22798
0.00128781
0.0595532
-1.27035
1.27721
-0.0655792
-0.00213077
0.00281655
0.0558229
-1.29507
1.30062
-0.0627986
-0.00139334
0.00342397
0.0487338
-1.31299
1.31692
-0.0548254
-0.00126967
0.00357544
0.0434112
-1.32784
1.33338
-0.0503863
-0.00214342
-1.37801
0.0222589
0.189009
5.80111
-0.216508
-0.0348678
-1.49073
-1.39934
-1.49291
24.1089
-0.685339
-0.210484
-5.86268
-6.16749
-5.89486
-6.16923
24.1232
-0.656107
-0.206651
24.139
-0.645233
-0.202197
24.157
-0.63728
-0.198772
24.1763
-0.630713
-0.196082
24.1966
-0.625608
-0.193743
24.2179
-0.621771
-0.191546
24.2399
-0.618732
-0.189359
24.262
-0.616291
-0.18711
24.284
-0.614232
-0.184754
24.3055
-0.612612
-0.182314
24.3265
-0.611454
-0.179796
24.3468
-0.61058
-0.177339
24.3662
-0.609621
-0.174975
24.3846
-0.608693
-0.172852
24.4019
-0.607743
-0.171142
24.4183
-0.606696
-0.170153
24.4337
-0.605035
-0.170216
-0.601579
-0.171719
25.0081
-0.00567847
0.000877659
25.0149
0.00959433
0.0017852
25.0213
0.03294
0.00276167
25.0249
0.0577044
0.00385205
25.024
0.0881735
0.00507629
25.0282
0.118495
0.00616408
25.04
0.160439
0.00775898
25.0682
0.220362
0.00879999
6.27582
0.310458
0.00903304
6.28794
6.27736
6.29134
-0.000984558
-0.109542
6.28341
0.101395
0.00151631
-0.000162549
-0.0444147
-1.57789
1.57966
0.0426127
0.000193028
0.000207123
-0.0820033
-1.60041
1.61704
0.065528
-0.00035343
0.00181212
-0.0261929
-1.71318
1.75099
0.0584479
-0.00124238
-0.0215451
-0.0271311
-0.0219213
0.00286722
0.112743
-1.71095
1.6797
-0.0801475
-0.00416573
0.10658
-1.60956
0.00415676
1.59856
-0.0940419
-0.00567286
0.00511605
0.0755083
-1.58345
-0.00683076
1.58116
-0.0715085
0.00572037
0.0547214
-1.57756
1.57598
-0.0513529
-0.00751178
0.00609217
0.0560534
-1.57497
1.5735
-0.0528303
-0.00784455
0.00634735
0.0500829
-1.57259
1.57192
-0.0477654
-0.00799485
0.00646128
0.0463703
-1.56907
1.56937
-0.0451196
-0.00801108
-1.56949
0.0263405
0.179069
6.27252
-0.156652
-0.0421181
-1.56968
-1.56962
-1.57036
25.0789
-0.528844
-0.253309
-6.27514
-6.26926
-6.27912
-6.27408
25.0791
-0.520362
-0.251833
25.0767
-0.509032
-0.250226
25.0744
-0.502295
-0.249802
25.0725
-0.496754
-0.250071
25.0715
-0.493019
-0.250685
25.0708
-0.489819
-0.251497
25.0704
-0.48717
-0.252383
25.07
-0.484879
-0.253233
25.0695
-0.482594
-0.25396
25.0688
-0.48071
-0.254523
25.0683
-0.479277
-0.255137
25.0674
-0.477933
-0.255123
25.0659
-0.476142
-0.255244
25.0649
-0.475226
-0.255357
25.0639
-0.47388
-0.255677
25.0631
-0.472407
-0.256412
25.0629
-0.470203
-0.257762
-0.467721
-0.259646
25.0066
-0.00987472
0.000507046
25.0163
-0.000637584
0.00100866
25.03
0.0184585
0.00146011
25.038
0.0487587
0.00182645
25.0552
0.0698575
0.00199835
25.0783
0.0943273
0.00177679
25.1159
0.122193
0.000798913
25.181
0.155636
-0.00161496
6.32916
0.197321
-0.00668539
6.31796
6.33342
6.3165
-0.0860985
0.00137619
6.34744
0.068569
-0.00215716
-0.0330791
0.0033012
6.42098
0.0887233
-0.0048786
-0.0312974
-0.0333437
-0.0305333
-6.37985
-0.0299395
0.00686424
6.49347
0.0832474
-0.0101907
-0.0292402
-0.029151
-0.0316476
-6.45339
-0.00949144
0.0120054
-6.54218
6.50116
-0.0574176
-0.0186588
0.0630765
-0.0108333
0.0624236
0.0354464
0.0186383
-6.49356
6.47453
-0.144776
-0.0283904
0.0520363
0.0347525
0.0513659
0.0584991
-6.45052
0.0239805
6.40642
-0.183323
-0.0360829
0.057804
0.0619416
0.0612453
0.0559719
0.0272345
-6.36613
6.33825
-0.17639
-0.04094
0.0538815
0.0550899
0.0530169
0.0453348
0.0292674
-6.3247
6.31797
-0.156907
-0.0439819
0.0445886
0.0445577
0.0439183
0.0438853
0.0304549
-6.31408
6.30645
-0.15211
-0.0457445
0.0443829
0.0431672
0.0436747
0.043118
0.030967
-6.2979
6.28903
-0.14186
-0.0465897
0.040673
0.0425155
0.0400974
0.03824
0.0310931
-6.28159
6.27378
-0.125266
-0.0468507
0.0353192
0.038744
0.0365464
0.136888
-6.27228
0.0310385
6.27254
-0.121387
-0.0467931
25.0734
-0.385596
-0.258403
-6.27099
-6.26937
-6.27133
-6.26913
25.066
-0.378749
-0.256898
25.0618
-0.371916
-0.255799
25.0586
-0.36675
-0.25559
25.057
-0.363083
-0.255628
25.0556
-0.359935
-0.255712
25.0551
-0.357752
-0.255771
25.0552
-0.355886
-0.255744
25.0553
-0.353746
-0.255591
25.0561
-0.352266
-0.255297
25.0566
-0.350415
-0.254846
25.0574