/*--------------------------------*- C++ -*----------------------------------*\
| =========                 |                                                 |
| \\      /  F ield         | OpenFOAM: The Open Source CFD Toolbox           |
|  \\    /   O peration     | Version:  2306                                  |
|   \\  /    A nd           | Website:  www.openfoam.com                      |
|    \\/     M anipulation  |                                                 |
\*---------------------------------------------------------------------------*/
FoamFile
{
    version     2.0;
    format      ascii;
    arch        "LSB;label=32;scalar=64";
    class       volVectorField;
    location    "1.6";
    object      U;
}
// * * * * * * * * * * * * * * * * * * * * * * * * * * * * * * * * * * * * * //

dimensions      [0 1 -1 0 0 0 0];

internalField   nonuniform List<vector> 
111542
(
(99.9934 0.00526437 0.00284125)
(99.9712 0.0107931 0.00587806)
(99.9301 0.0165441 0.0092387)
(99.8688 0.0226513 0.0133965)
(99.7857 0.0288394 0.018746)
(99.6786 0.0343107 0.0257483)
(99.5466 0.0371817 0.0346813)
(99.3919 0.0344638 0.0460488)
(99.2237 0.0215092 0.0603543)
(99.0622 -0.00809572 0.0776002)
(98.9404 -0.0600532 0.0972631)
(98.8994 -0.132007 0.118322)
(98.9657 -0.205756 0.139572)
(99.131 -0.261542 0.158944)
(99.351 -0.288636 0.175024)
(99.5771 -0.296645 0.187806)
(99.7817 -0.294562 0.197732)
(99.9557 -0.287162 0.20569)
(100.098 -0.277575 0.212232)
(100.211 -0.268027 0.217805)
(100.298 -0.25994 0.222392)
(100.363 -0.253555 0.226276)
(100.409 -0.248631 0.229868)
(100.443 -0.245524 0.233082)
(100.467 -0.243976 0.23602)
(100.484 -0.243415 0.238874)
(100.498 -0.243818 0.241368)
(100.508 -0.244909 0.243467)
(100.515 -0.24625 0.245275)
(100.521 -0.247607 0.246754)
(100.527 -0.248868 0.247849)
(100.532 -0.250035 0.248503)
(100.537 -0.250951 0.248901)
(100.542 -0.251627 0.249117)
(100.548 -0.252148 0.24919)
(100.555 -0.25263 0.249148)
(100.562 -0.253229 0.248966)
(100.57 -0.2539 0.248816)
(100.581 -0.25474 0.248746)
(100.597 -0.25601 0.248823)
(99.9936 0.0156932 0.00278385)
(99.9719 0.0321118 0.0056925)
(99.9313 0.049583 0.00902774)
(99.8703 0.0684275 0.0131557)
(99.7865 0.0879988 0.0184601)
(99.6761 0.106158 0.0253897)
(99.5359 0.117926 0.0344099)
(99.3654 0.114435 0.0460591)
(99.1704 0.0810223 0.0608399)
(98.97 -0.00337771 0.0789481)
(98.8055 -0.156144 0.100085)
(98.7434 -0.370875 0.122604)
(98.8287 -0.594755 0.145688)
(99.0403 -0.755463 0.16682)
(99.3061 -0.834154 0.184017)
(99.5613 -0.860778 0.197206)
(99.7813 -0.857764 0.207379)
(99.963 -0.838624 0.215512)
(100.108 -0.812926 0.22215)
(100.22 -0.786396 0.227564)
(100.304 -0.762595 0.231912)
(100.365 -0.743924 0.235594)
(100.409 -0.730606 0.238962)
(100.438 -0.722266 0.24219)
(100.459 -0.716805 0.245353)
(100.474 -0.712786 0.248447)
(100.485 -0.710289 0.251343)
(100.493 -0.709139 0.253937)
(100.5 -0.708738 0.256166)
(100.505 -0.708677 0.257971)
(100.51 -0.708754 0.259322)
(100.515 -0.708915 0.260237)
(100.52 -0.708972 0.260803)
(100.525 -0.708974 0.261106)
(100.531 -0.709101 0.26122)
(100.537 -0.709597 0.261214)
(100.543 -0.710743 0.261134)
(100.551 -0.71256 0.261049)
(100.561 -0.715174 0.261007)
(100.575 -0.7187 0.26113)
(99.994 0.0257599 0.00264108)
(99.9732 0.0527923 0.00539912)
(99.9342 0.0822918 0.00859865)
(99.8746 0.115026 0.0125829)
(99.7904 0.150641 0.0177402)
(99.6754 0.186725 0.0245543)
(99.5218 0.21688 0.0335973)
(99.3219 0.227382 0.0455403)
(99.073 0.191513 0.0611187)
(98.7922 0.0607536 0.0809686)
(98.5391 -0.274136 0.105397)
(98.4265 -0.737142 0.132911)
(98.5508 -1.15529 0.158414)
(98.8587 -1.39259 0.181603)
(99.2076 -1.4861 0.199534)
(99.5127 -1.50974 0.212575)
(99.7611 -1.48916 0.222523)
(99.9572 -1.4474 0.23056)
(100.107 -1.39954 0.237074)
(100.219 -1.35242 0.242101)
(100.299 -1.311 0.245533)
(100.354 -1.2749 0.248306)
(100.39 -1.25475 0.251331)
(100.415 -1.24861 0.254905)
(100.434 -1.24836 0.258891)
(100.447 -1.24994 0.263025)
(100.455 -1.25249 0.267037)
(100.459 -1.25556 0.270691)
(100.463 -1.25846 0.273806)
(100.465 -1.26072 0.276267)
(100.467 -1.26213 0.27803)
(100.469 -1.2627 0.27912)
(100.471 -1.26253 0.27963)
(100.472 -1.26185 0.279696)
(100.474 -1.26104 0.279463)
(100.476 -1.26055 0.27907)
(100.479 -1.26079 0.278623)
(100.482 -1.2621 0.278205)
(100.487 -1.26462 0.277893)
(100.495 -1.26805 0.277871)
(99.9946 0.0350098 0.00242013)
(99.9759 0.0720917 0.00495528)
(99.9403 0.113502 0.0079134)
(99.8848 0.161163 0.0116247)
(99.8037 0.216154 0.0164739)
(99.6875 0.277857 0.0229606)
(99.5216 0.341959 0.0317315)
(99.2853 0.395824 0.0436004)
(98.9493 0.40969 0.0596081)
(98.4494 0.208868 0.0811284)
(98.1915 0.0295425 0.0879333)
(97.8439 -0.627566 0.103555)
(97.9097 -1.43029 0.116899)
(98.3912 -1.94261 0.127829)
(98.8968 -2.0874 0.1379)
(99.2942 -2.11278 0.144475)
(99.6156 -2.07126 0.149319)
(99.8605 -1.9963 0.153196)
(100.041 -1.9151 0.156276)
(100.175 -1.84185 0.158534)
(100.343 -1.89215 0.257928)
(100.379 -1.8183 0.259332)
(100.385 -1.76796 0.262701)
(100.384 -1.74122 0.268215)
(100.383 -1.72783 0.274929)
(100.379 -1.72328 0.28188)
(100.37 -1.72502 0.288367)
(100.357 -1.73047 0.293948)
(100.342 -1.73748 0.298365)
(100.326 -1.74459 0.301501)
(100.309 -1.7509 0.303355)
(100.291 -1.75596 0.304036)
(100.273 -1.7597 0.303727)
(100.255 -1.76236 0.302664)
(100.236 -1.76439 0.301093)
(100.216 -1.76645 0.299235)
(100.196 -1.76924 0.297251)
(100.176 -1.77341 0.29524)
(100.157 -1.77935 0.293274)
(100.134 -1.78624 0.29156)
(99.9956 0.042729 0.00211986)
(99.9804 0.0884474 0.00434956)
(99.951 0.140705 0.00695526)
(99.9042 0.203146 0.0102315)
(99.8333 0.279439 0.0145293)
(99.7269 0.373189 0.0203124)
(99.5652 0.487123 0.0282148)
(99.3156 0.61988 0.0390653)
(98.8725 0.758079 0.053979)
(98.5278 0.765629 0.059332)
(97.7131 0.37537 0.0727552)
(96.9073 -0.691869 0.0896169)
(97.0038 -2.34488 0.102359)
(98.1367 -2.94277 0.11004)
(98.8665 -2.95787 0.118989)
(99.3353 -2.9065 0.126085)
(99.6996 -2.78591 0.132852)
(99.9486 -2.65031 0.139052)
(100.117 -2.52388 0.144168)
(100.223 -2.4192 0.148524)
(100.292 -2.3666 0.158854)
(100.239 -2.46829 0.273127)
(100.109 -2.45722 0.27301)
(99.9799 -2.43483 0.277362)
(99.8603 -2.41121 0.283959)
(99.7438 -2.39405 0.290989)
(99.6298 -2.38338 0.297271)
(99.5203 -2.37675 0.30212)
(99.4167 -2.37208 0.305142)
(99.3197 -2.36794 0.306143)
(99.2294 -2.36334 0.3051)
(99.1457 -2.35774 0.302157)
(99.0682 -2.35099 0.29759)
(98.9961 -2.34334 0.291762)
(98.9286 -2.33534 0.28508)
(98.8649 -2.32776 0.277909)
(98.8044 -2.32155 0.270516)
(98.7471 -2.31787 0.263056)
(98.6942 -2.31831 0.255592)
(98.6405 -2.32578 0.248306)
(99.9971 0.0480238 0.00173814)
(99.9869 0.0998621 0.00358305)
(99.967 0.160339 0.00572754)
(99.9345 0.234939 0.00839883)
(99.8839 0.330397 0.011865)
(99.8046 0.455933 0.0164771)
(99.6775 0.62515 0.0227149)
(99.4657 0.858356 0.0311946)
(99.045 1.18709 0.0426906)
(98.6349 1.34966 0.0472791)
(97.6779 1.49195 0.0456155)
(95.5641 0.719291 0.042334)
(94.3703 -3.43235 0.0553332)
(98.2004 -4.70437 0.0391612)
(98.7409 -3.83767 0.045375)
(99.2945 -3.76706 0.0511405)
(99.6728 -3.56938 0.0414988)
(99.8362 -3.36432 0.0350374)
(99.8731 -3.18952 0.0367576)
(99.8082 -3.02514 0.0462864)
(98.5579 -2.81075 0.241602)
(95.3686 -2.27907 0.230353)
(95.3934 -2.36282 0.219514)
(95.4353 -2.41196 0.207959)
(95.4665 -2.44636 0.195187)
(95.4909 -2.47843 0.180936)
(95.5158 -2.51005 0.165672)
(95.544 -2.53983 0.150209)
(95.5757 -2.56623 0.135322)
(95.6107 -2.58803 0.121552)
(95.6489 -2.60438 0.109156)
(95.6901 -2.61495 0.0981363)
(95.7338 -2.62004 0.0883046)
(95.7798 -2.62048 0.0793755)
(95.8275 -2.61749 0.0710278)
(95.8768 -2.61254 0.0629373)
(95.9273 -2.60715 0.0547978)
(95.9787 -2.60295 0.0463284)
(96.03 -2.60191 0.0373356)
(96.0885 -2.60738 0.0281237)
(99.9989 0.0499993 0.0013732)
(99.995 0.104316 0.00276518)
(99.9873 0.168614 0.00434647)
(99.9743 0.249634 0.00626218)
(99.9535 0.356292 0.00865179)
(99.9201 0.502091 0.0116781)
(99.8656 0.70904 0.0155143)
(99.7756 1.01575 0.0202766)
(99.6017 1.49579 0.0259068)
(99.3325 1.8974 0.0284165)
(98.6082 2.83628 0.0264357)
(95.4354 5.82922 0.0277151)
(77.1259 -4.41871 0.0550286)
(102.744 -10.2977 0.0201125)
(50.4735 -2.72768 -0.498762)
(76.2966 -4.81284 -0.0990126)
(80.6801 -4.14158 -0.0426316)
(83.4511 -3.73537 -0.0219932)
(85.49 -3.46246 -0.0257444)
(87.2294 -3.33638 -0.0463909)
(93.3505 -3.83472 -0.188985)
(95.9757 -3.21073 -0.246236)
(96.1388 -3.09983 -0.248266)
(96.3161 -3.024 -0.250777)
(96.4697 -2.971 -0.254248)
(96.6061 -2.93184 -0.257959)
(96.7337 -2.90205 -0.261127)
(96.8541 -2.87866 -0.263197)
(96.9659 -2.85922 -0.263839)
(97.0682 -2.84179 -0.262929)
(97.161 -2.82499 -0.260554)
(97.2448 -2.80804 -0.25698)
(97.3208 -2.79066 -0.252608)
(97.3904 -2.77295 -0.247894)
(97.4553 -2.75526 -0.243287)
(97.5171 -2.73807 -0.239181)
(97.5774 -2.72179 -0.235914)
(97.6372 -2.70661 -0.233746)
(97.6972 -2.69212 -0.232873)
(97.7715 -2.67626 -0.233374)
(100.001 0.0480855 0.000963324)
(100.004 0.100488 0.0018985)
(100.009 0.162963 0.00290571)
(100.018 0.242369 0.00402395)
(100.031 0.347833 0.00525191)
(100.052 0.492949 0.00653832)
(100.085 0.699134 0.00772138)
(100.147 1.00221 0.00838913)
(100.291 1.46442 0.00765552)
(100.339 1.87643 0.0075597)
(100.611 2.86446 0.00429356)
(102.412 5.41009 0.00264614)
(111.112 4.09226 0.0121048)
(109.076 -6.66957 0.0470884)
(102.763 -6.71403 -0.0345118)
(101.116 -4.91385 -0.0484462)
(100.682 -3.9263 -0.0467938)
(100.517 -3.38708 -0.0471593)
(100.437 -3.07455 -0.0499604)
(100.372 -2.89381 -0.0531586)
(100.274 -2.67114 -0.143924)
(100.291 -2.25117 -0.239257)
(100.275 -2.15457 -0.23779)
(100.263 -2.10333 -0.23935)
(100.254 -2.07965 -0.243632)
(100.245 -2.06852 -0.249714)
(100.237 -2.06352 -0.256584)
(100.23 -2.06176 -0.26344)
(100.225 -2.06134 -0.269674)
(100.221 -2.06091 -0.274847)
(100.219 -2.0598 -0.27869)
(100.217 -2.05787 -0.281122)
(100.215 -2.05528 -0.282229)
(100.214 -2.05236 -0.282234)
(100.214 -2.04944 -0.281458)
(100.214 -2.04675 -0.280284)
(100.214 -2.04437 -0.279121)
(100.215 -2.042 -0.278357)
(100.219 -2.03869 -0.278297)
(100.228 -2.03218 -0.278925)
(100.003 0.0421797 0.000528184)
(100.012 0.0882056 0.00102994)
(100.03 0.1431 0.00150001)
(100.059 0.21274 0.00186778)
(100.103 0.304598 0.00201387)
(100.17 0.428802 0.00171876)
(100.273 0.599497 0.000574667)
(100.44 0.836137 -0.00214836)
(100.757 1.16307 -0.00780128)
(100.982 1.40329 -0.00981492)
(101.836 1.86153 -0.016853)
(103.451 1.76926 -0.0293501)
(105.236 -0.233028 -0.0435434)
(104.778 -2.81561 -0.0250413)
(102.977 -3.52193 -0.0464459)
(101.767 -3.2952 -0.063894)
(101.145 -2.93844 -0.0743961)
(100.812 -2.63959 -0.0806025)
(100.62 -2.41818 -0.0843673)
(100.492 -2.25608 -0.086802)
(100.399 -2.12952 -0.0895356)
(100.296 -1.85782 -0.240016)
(100.261 -1.82831 -0.240214)
(100.238 -1.8088 -0.241719)
(100.224 -1.79711 -0.24433)
(100.215 -1.78893 -0.247541)
(100.209 -1.78183 -0.25082)
(100.205 -1.77503 -0.253759)
(100.203 -1.76823 -0.256098)
(100.202 -1.76115 -0.257698)
(100.203 -1.75369 -0.258538)
(100.204 -1.74588 -0.258696)
(100.206 -1.73784 -0.258322)
(100.208 -1.72975 -0.257609)
(100.211 -1.72171 -0.256776)
(100.214 -1.71381 -0.256041)
(100.218 -1.70602 -0.255617)
(100.222 -1.6982 -0.255696)
(100.23 -1.69015 -0.256453)
(100.246 -1.68198 -0.258063)
(100.004 0.0327647 0.000205237)
(100.019 0.068511 0.000385778)
(100.047 0.111002 0.000410188)
(100.092 0.164492 0.000153051)
(100.159 0.233952 -0.000578375)
(100.257 0.325156 -0.00212254)
(100.403 0.444304 -0.00501828)
(100.622 0.595763 -0.0101255)
(100.956 0.775641 -0.0188494)
(101.444 0.859696 -0.0330003)
(102.085 0.762441 -0.0543375)
(102.763 0.23535 -0.0836081)
(103.122 -0.750234 -0.116472)
(102.877 -1.57519 -0.146042)
(102.237 -1.87475 -0.174991)
(101.61 -1.87529 -0.197347)
(101.166 -1.78676 -0.211897)
(100.878 -1.68136 -0.221121)
(100.685 -1.58343 -0.227226)
(100.548 -1.4987 -0.231314)
(100.453 -1.42661 -0.233975)
(100.388 -1.36314 -0.235546)
(100.343 -1.31346 -0.237012)
(100.31 -1.27412 -0.238811)
(100.286 -1.24402 -0.240939)
(100.269 -1.22126 -0.243252)
(100.256 -1.2036 -0.245586)
(100.247 -1.18943 -0.247774)
(100.24 -1.17766 -0.249675)
(100.235 -1.16755 -0.251193)
(100.232 -1.15857 -0.252286)
(100.23 -1.15043 -0.252967)
(100.229 -1.14298 -0.253298)
(100.229 -1.13618 -0.253373)
(100.229 -1.12995 -0.253323)
(100.23 -1.1243 -0.253293)
(100.231 -1.11913 -0.253436)
(100.234 -1.11435 -0.253914)
(100.239 -1.10987 -0.254888)
(100.247 -1.10584 -0.256534)
(100.005 0.0207439 -4.26399e-05)
(100.024 0.0432786 -0.000141737)
(100.059 0.0700494 -0.000445523)
(100.114 0.103336 -0.00112702)
(100.195 0.145972 -0.00246063)
(100.311 0.200313 -0.00482556)
(100.475 0.267756 -0.00880385)
(100.702 0.345738 -0.0151986)
(101.012 0.421309 -0.0251168)
(101.413 0.455303 -0.0398153)
(101.879 0.391882 -0.0603778)
(102.311 0.15659 -0.087108)
(102.536 -0.260586 -0.117329)
(102.423 -0.685843 -0.146388)
(102.039 -0.92616 -0.17224)
(101.584 -0.983183 -0.192273)
(101.207 -0.953481 -0.20644)
(100.935 -0.899688 -0.21604)
(100.738 -0.845192 -0.222749)
(100.593 -0.796553 -0.227585)
(100.484 -0.75613 -0.231122)
(100.404 -0.726392 -0.233761)
(100.345 -0.70678 -0.235952)
(100.301 -0.694707 -0.237927)
(100.269 -0.687984 -0.239755)
(100.246 -0.684953 -0.241415)
(100.229 -0.684109 -0.242856)
(100.217 -0.684341 -0.24401)
(100.209 -0.684992 -0.244815)
(100.204 -0.685706 -0.245241)
(100.201 -0.686276 -0.245299)
(100.199 -0.686629 -0.245035)
(100.199 -0.68676 -0.244524)
(100.199 -0.68675 -0.243869)
(100.2 -0.686382 -0.243214)
(100.202 -0.685837 -0.242659)
(100.205 -0.685153 -0.242322)
(100.21 -0.684306 -0.242336)
(100.218 -0.683283 -0.242866)
(100.233 -0.681992 -0.244195)
(100.006 0.0071013 -0.000186954)
(100.026 0.0147783 -0.000374701)
(100.064 0.0239237 -0.000874558)
(100.124 0.0351548 -0.00171995)
(100.212 0.0494865 -0.00337491)
(100.335 0.0674496 -0.00615711)
(100.505 0.0890254 -0.0106898)
(100.731 0.112715 -0.017662)
(101.023 0.133416 -0.0281554)
(101.373 0.138561 -0.0428708)
(101.748 0.108355 -0.0624036)
(102.071 0.0223567 -0.0865352)
(102.24 -0.116099 -0.113529)
(102.178 -0.259453 -0.140381)
(101.908 -0.350382 -0.163792)
(101.55 -0.378457 -0.182562)
(101.217 -0.372657 -0.196589)
(100.955 -0.357369 -0.206474)
(100.757 -0.341654 -0.213607)
(100.608 -0.327701 -0.218926)
(100.494 -0.316104 -0.223025)
(100.409 -0.307147 -0.226255)
(100.347 -0.300092 -0.22888)
(100.301 -0.294127 -0.231019)
(100.268 -0.288571 -0.232884)
(100.244 -0.283144 -0.234502)
(100.227 -0.277691 -0.235839)
(100.214 -0.272134 -0.236866)
(100.206 -0.266486 -0.237557)
(100.2 -0.26081 -0.23791)
(100.196 -0.25518 -0.237946)
(100.194 -0.249674 -0.237707)
(100.193 -0.244377 -0.237251)
(100.193 -0.239399 -0.236617)
(100.194 -0.234586 -0.236112)
(100.195 -0.230095 -0.235715)
(100.198 -0.225988 -0.235505)
(100.202 -0.222292 -0.235616)
(100.208 -0.219131 -0.236219)
(100.219 -0.217003 -0.237626)
(99.9938 0.00520758 0.00827452)
(99.9724 0.0106092 0.0170345)
(99.9327 0.0163371 0.0269817)
(99.8736 0.0224186 0.0392688)
(99.7935 0.0285658 0.0550009)
(99.6902 0.033972 0.0754402)
(99.5627 0.0369352 0.101687)
(99.4136 0.0344986 0.135156)
(99.2516 0.0220123 0.177095)
(99.096 -0.00677117 0.227666)
(98.9791 -0.0573774 0.285773)
(98.9408 -0.127883 0.348482)
(99.0063 -0.19949 0.411224)
(99.1668 -0.253196 0.468442)
(99.3795 -0.27909 0.51609)
(99.5973 -0.286576 0.553816)
(99.7935 -0.284148 0.583025)
(99.9598 -0.27648 0.606007)
(100.095 -0.266725 0.624415)
(100.203 -0.257312 0.639459)
(100.285 -0.249371 0.651642)
(100.347 -0.243125 0.661795)
(100.393 -0.238386 0.670737)
(100.427 -0.235242 0.678457)
(100.452 -0.233453 0.685047)
(100.472 -0.232654 0.690736)
(100.488 -0.232658 0.695264)
(100.501 -0.233265 0.69871)
(100.512 -0.234205 0.701332)
(100.52 -0.235257 0.703182)
(100.528 -0.236278 0.704276)
(100.535 -0.237191 0.70463)
(100.542 -0.237944 0.704537)
(100.548 -0.238538 0.704134)
(100.553 -0.239012 0.703475)
(100.559 -0.239449 0.70259)
(100.565 -0.239933 0.701436)
(100.573 -0.240525 0.70018)
(100.582 -0.241327 0.698814)
(100.597 -0.242539 0.697316)
(99.9939 0.015495 0.0080909)
(99.973 0.0316386 0.0165829)
(99.9339 0.0489552 0.0263864)
(99.8751 0.067636 0.0385335)
(99.7942 0.0870296 0.0541317)
(99.6876 0.105029 0.0744859)
(99.5523 0.116937 0.101021)
(99.3876 0.114043 0.135348)
(99.1993 0.0818931 0.17896)
(99.0054 2.7916e-07 0.232617)
(98.8461 -0.14844 0.295554)
(98.7873 -0.356697 0.364862)
(98.872 -0.575266 0.434605)
(99.078 -0.733106 0.497553)
(99.3355 -0.809816 0.548327)
(99.5821 -0.835969 0.587173)
(99.7941 -0.83269 0.616808)
(99.9686 -0.813231 0.639965)
(100.108 -0.787373 0.658331)
(100.215 -0.761214 0.672866)
(100.295 -0.738403 0.684312)
(100.354 -0.720739 0.693905)
(100.397 -0.707946 0.702265)
(100.428 -0.699261 0.709398)
(100.45 -0.692822 0.715363)
(100.467 -0.687633 0.720368)
(100.481 -0.683766 0.724524)
(100.491 -0.681239 0.727927)
(100.499 -0.679716 0.730661)
(100.506 -0.678852 0.73275)
(100.512 -0.678423 0.734216)
(100.518 -0.678288 0.735117)
(100.523 -0.678326 0.735576)
(100.528 -0.678536 0.735696)
(100.534 -0.678994 0.735537)
(100.539 -0.679817 0.735136)
(100.545 -0.681177 0.734493)
(100.552 -0.68319 0.733621)
(100.561 -0.685938 0.732494)
(100.574 -0.689443 0.73114)
(99.9943 0.0253988 0.00767788)
(99.9743 0.0520642 0.0157501)
(99.9367 0.0811972 0.0251475)
(99.8793 0.113532 0.0368748)
(99.7981 0.148718 0.0520741)
(99.6871 0.184414 0.0721689)
(99.5386 0.214394 0.0988883)
(99.3452 0.225211 0.134294)
(99.1039 0.190639 0.180638)
(98.8313 0.0630506 0.239864)
(98.5855 -0.264311 0.312446)
(98.4762 -0.717514 0.39396)
(98.5975 -1.12646 0.475142)
(98.8978 -1.35941 0.546746)
(99.237 -1.45195 0.601137)
(99.533 -1.47569 0.640422)
(99.7738 -1.45473 0.669728)
(99.9634 -1.41224 0.692567)
(100.108 -1.36384 0.71039)
(100.215 -1.31674 0.723797)
(100.292 -1.27717 0.733127)
(100.347 -1.244 0.740784)
(100.385 -1.22451 0.747848)
(100.412 -1.21675 0.754033)
(100.433 -1.2136 0.759094)
(100.447 -1.21195 0.763156)
(100.456 -1.21151 0.766433)
(100.462 -1.21211 0.769056)
(100.465 -1.21327 0.771072)
(100.467 -1.21454 0.772502)
(100.469 -1.21564 0.77337)
(100.47 -1.21648 0.773737)
(100.471 -1.21702 0.773695)
(100.473 -1.21733 0.773344)
(100.474 -1.21762 0.772767)
(100.476 -1.21816 0.772005)
(100.478 -1.21927 0.771052)
(100.481 -1.22125 0.769856)
(100.486 -1.22421 0.768382)
(100.495 -1.22781 0.766807)
(99.9949 0.0344928 0.00703777)
(99.9769 0.0710546 0.0144672)
(99.9427 0.111886 0.0231668)
(99.8893 0.158861 0.0341078)
(99.8111 0.213031 0.0484388)
(99.6989 0.273785 0.0676596)
(99.5384 0.336879 0.0937616)
(99.3091 0.38986 0.129319)
(98.982 0.403329 0.177631)
(98.4932 0.205482 0.242749)
(98.2358 0.022821 0.275499)
(97.8933 -0.637422 0.350705)
(97.9608 -1.43563 0.429749)
(98.4371 -1.95187 0.501026)
(98.9326 -2.10129 0.552974)
(99.3238 -2.1312 0.587433)
(99.6411 -2.09059 0.612497)
(99.8823 -2.01405 0.632362)
(100.06 -1.93053 0.648109)
(100.19 -1.85527 0.659888)
(100.346 -1.88422 0.788091)
(100.382 -1.81642 0.793305)
(100.392 -1.7665 0.796811)
(100.394 -1.73543 0.800126)
(100.395 -1.71516 0.803835)
(100.391 -1.70291 0.80779)
(100.38 -1.69726 0.811692)
(100.366 -1.69636 0.815263)
(100.349 -1.69853 0.818249)
(100.331 -1.70254 0.820444)
(100.312 -1.70755 0.821755)
(100.292 -1.71296 0.822199)
(100.273 -1.71841 0.821883)
(100.253 -1.72369 0.820963)
(100.233 -1.7288 0.819595)
(100.213 -1.73391 0.817884)
(100.193 -1.73933 0.815826)
(100.173 -1.74549 0.8133)
(100.155 -1.75268 0.810102)
(100.136 -1.76005 0.806108)
(99.9959 0.0420521 0.00617282)
(99.9813 0.0870899 0.0127065)
(99.9532 0.13855 0.0203762)
(99.9081 0.199976 0.0300553)
(99.8399 0.274932 0.042803)
(99.7373 0.366902 0.0600477)
(99.5808 0.478478 0.0837862)
(99.3381 0.608157 0.116728)
(98.905 0.742332 0.162497)
(98.5624 0.744669 0.188334)
(97.756 0.352963 0.253781)
(96.958 -0.71102 0.336804)
(97.0545 -2.35294 0.429148)
(98.1703 -2.9611 0.506183)
(98.8859 -2.99252 0.547187)
(99.3563 -2.95096 0.565642)
(99.7238 -2.83123 0.582115)
(99.9737 -2.69149 0.600147)
(100.142 -2.5601 0.616785)
(100.248 -2.45107 0.629567)
(100.315 -2.38923 0.632906)
(100.234 -2.5273 0.763867)
(100.111 -2.50106 0.759574)
(99.9898 -2.46502 0.751813)
(99.8779 -2.42943 0.74456)
(99.7679 -2.40218 0.738488)
(99.659 -2.38333 0.733178)
(99.5529 -2.37039 0.728144)
(99.4505 -2.3613 0.722951)
(99.3525 -2.35469 0.717275)
(99.2591 -2.34963 0.71097)
(99.1706 -2.34549 0.704079)
(99.0873 -2.34189 0.696784)
(99.009 -2.33865 0.68934)
(98.9357 -2.33576 0.681993)
(98.8669 -2.33335 0.67488)
(98.8023 -2.33175 0.667916)
(98.7422 -2.33166 0.660761)
(98.6879 -2.3344 0.652825)
(98.6352 -2.3426 0.643601)
(99.9973 0.0472816 0.00515347)
(99.9876 0.098291 0.0105557)
(99.9687 0.157757 0.0168597)
(99.9376 0.231019 0.0247569)
(99.8891 0.324609 0.0350728)
(99.8128 0.447474 0.0489249)
(99.6897 0.612793 0.0678722)
(99.4834 0.840242 0.0940566)
(99.0707 1.16031 0.130258)
(98.6635 1.31919 0.151928)
(97.7129 1.45598 0.181784)
(95.613 0.679017 0.235534)
(94.4167 -3.4591 0.32434)
(98.219 -4.73887 0.405825)
(98.7471 -3.9477 0.408873)
(99.3267 -3.84236 0.376219)
(99.7159 -3.61002 0.359649)
(99.8907 -3.374 0.35064)
(99.9486 -3.16808 0.339487)
(99.9217 -2.97427 0.324209)
(98.7217 -2.76869 0.303738)
(95.0515 -2.57077 0.337091)
(95.16 -2.59073 0.347058)
(95.2793 -2.58315 0.350891)
(95.3764 -2.56773 0.352863)
(95.4525 -2.55565 0.353714)
(95.5146 -2.54823 0.353089)
(95.5665 -2.54443 0.350688)
(95.6106 -2.54356 0.346466)
(95.6495 -2.54521 0.340625)
(95.6861 -2.54901 0.333563)
(95.7225 -2.55453 0.325802)
(95.7604 -2.56129 0.317797)
(95.8005 -2.56874 0.309928)
(95.843 -2.57638 0.302394)
(95.8878 -2.58379 0.295138)
(95.9341 -2.59075 0.28778)
(95.9813 -2.59747 0.279551)
(96.0285 -2.605 0.269193)
(96.0856 -2.61649 0.254752)
(99.999 0.0492119 0.0039347)
(99.9954 0.102626 0.00804601)
(99.9883 0.165795 0.012745)
(99.9763 0.245275 0.018451)
(99.9567 0.349721 0.0256207)
(99.9249 0.492246 0.0348129)
(99.8724 0.694241 0.0466981)
(99.7845 0.993357 0.0619023)
(99.6124 1.46157 0.0806118)
(99.3446 1.85678 0.0920714)
(98.6237 2.78331 0.104921)
(95.4807 5.75886 0.124072)
(77.2158 -4.40445 0.160549)
(59.44 -5.7736 1.24279)
(77.0828 -5.14663 -0.000865953)
(80.963 -4.35806 0.0255006)
(82.9313 -3.73828 0.0533372)
(84.0191 -3.21714 0.0500427)
(85.0149 -2.89127 0.00585009)
(92.3957 -3.61626 -0.313212)
(96.333 -3.41669 -0.572823)
(96.4031 -3.28022 -0.564385)
(96.4937 -3.1796 -0.554769)
(96.5717 -3.10295 -0.547145)
(96.6456 -3.04113 -0.541622)
(96.7241 -2.99006 -0.537312)
(96.8083 -2.94772 -0.533326)
(96.8964 -2.9127 -0.528961)
(96.9863 -2.88383 -0.523749)
(97.0765 -2.86008 -0.517491)
(97.1658 -2.84054 -0.510252)
(97.2528 -2.82437 -0.502308)
(97.3368 -2.81081 -0.494107)
(97.417 -2.7992 -0.486201)
(97.4931 -2.78897 -0.479227)
(97.5649 -2.77961 -0.473943)
(97.6327 -2.77055 -0.471221)
(97.6968 -2.76086 -0.47211)
(97.7708 -2.74843 -0.477643)
(100.001 0.0472246 0.00270518)
(100.004 0.0987453 0.00547188)
(100.01 0.160114 0.00847238)
(100.019 0.237983 0.0118174)
(100.032 0.341218 0.015543)
(100.053 0.483021 0.0195683)
(100.086 0.684248 0.0235169)
(100.146 0.979901 0.0263346)
(100.285 1.43104 0.0255009)
(100.332 1.8366 0.0242822)
(100.6 2.81114 0.0150152)
(102.404 5.32018 -0.0161019)
(111.018 3.94651 -0.0847692)
(108.979 -6.63752 -0.206898)
(102.731 -6.72649 -0.304873)
(101.103 -4.91503 -0.377972)
(100.661 -3.92359 -0.418796)
(100.491 -3.37859 -0.438455)
(100.409 -3.05835 -0.445835)
(100.344 -2.87053 -0.446881)
(100.247 -2.70119 -0.518574)
(100.273 -2.32271 -0.698246)
(100.258 -2.219 -0.695797)
(100.248 -2.16067 -0.691506)
(100.242 -2.12976 -0.688854)
(100.238 -2.11194 -0.688332)
(100.235 -2.10138 -0.689357)
(100.235 -2.09562 -0.691353)
(100.235 -2.09287 -0.693823)
(100.236 -2.09176 -0.696303)
(100.237 -2.09141 -0.698415)
(100.237 -2.09133 -0.699912)
(100.236 -2.09128 -0.700703)
(100.234 -2.09116 -0.700824)
(100.232 -2.09097 -0.700515)
(100.228 -2.09064 -0.700165)
(100.225 -2.09004 -0.700335)
(100.222 -2.08873 -0.701714)
(100.221 -2.08575 -0.705021)
(100.227 -2.07889 -0.710488)
(100.003 0.0414113 0.00152141)
(100.012 0.0866831 0.00304338)
(100.03 0.140594 0.00444877)
(100.059 0.208871 0.00557082)
(100.102 0.298773 0.00607978)
(100.168 0.420123 0.00536299)
(100.269 0.586709 0.0022819)
(100.431 0.817502 -0.00524891)
(100.742 1.1362 -0.021142)
(100.964 1.37186 -0.0317521)
(101.804 1.82049 -0.0686537)
(103.401 1.7187 -0.139029)
(105.161 -0.269438 -0.244269)
(104.7 -2.81969 -0.363884)
(102.928 -3.53251 -0.457546)
(101.733 -3.30381 -0.520782)
(101.122 -2.94866 -0.559346)
(100.799 -2.65261 -0.581035)
(100.612 -2.43394 -0.592666)
(100.487 -2.27489 -0.598131)
(100.397 -2.1499 -0.598315)
(100.3 -1.86891 -0.744913)
(100.264 -1.84108 -0.74257)
(100.239 -1.82088 -0.74012)
(100.224 -1.80647 -0.738316)
(100.215 -1.79426 -0.737148)
(100.21 -1.78261 -0.736371)
(100.207 -1.77129 -0.735745)
(100.207 -1.76036 -0.735054)
(100.207 -1.74979 -0.734118)
(100.209 -1.73961 -0.73283)
(100.211 -1.72988 -0.731162)
(100.213 -1.72066 -0.729179)
(100.215 -1.71201 -0.727004)
(100.217 -1.70388 -0.724874)
(100.219 -1.69615 -0.723101)
(100.222 -1.68863 -0.72208)
(100.226 -1.68095 -0.722282)
(100.232 -1.67285 -0.724214)
(100.246 -1.66465 -0.728328)
(100.004 0.0321858 0.000557692)
(100.019 0.0673235 0.00102981)
(100.046 0.109043 0.00111171)
(100.091 0.16151 0.000416585)
(100.156 0.229473 -0.00165761)
(100.253 0.318573 -0.00606938)
(100.395 0.434823 -0.0143598)
(100.608 0.582421 -0.0290279)
(100.935 0.757393 -0.0541527)
(101.411 0.839301 -0.0955233)
(102.037 0.744124 -0.158964)
(102.699 0.228251 -0.248254)
(103.049 -0.732273 -0.355294)
(102.806 -1.54077 -0.467509)
(102.18 -1.83594 -0.559719)
(101.571 -1.83534 -0.62338)
(101.143 -1.74784 -0.663319)
(100.867 -1.6447 -0.687849)
(100.682 -1.54935 -0.703252)
(100.551 -1.46734 -0.712805)
(100.46 -1.39815 -0.718268)
(100.397 -1.33809 -0.720604)
(100.351 -1.29052 -0.722656)
(100.317 -1.25191 -0.724839)
(100.292 -1.22141 -0.726782)
(100.273 -1.19757 -0.728377)
(100.259 -1.17862 -0.729684)
(100.248 -1.16322 -0.730706)
(100.24 -1.15044 -0.731396)
(100.234 -1.1396 -0.731708)
(100.23 -1.1302 -0.731638)
(100.227 -1.12188 -0.731224)
(100.226 -1.11443 -0.730557)
(100.226 -1.10773 -0.729762)
(100.226 -1.10166 -0.729037)
(100.227 -1.09612 -0.728621)
(100.23 -1.09095 -0.728806)
(100.233 -1.08601 -0.729926)
(100.238 -1.08124 -0.732334)
(100.246 -1.07689 -0.736273)
(100.005 0.0203495 -0.000144322)
(100.023 0.0425276 -0.000423284)
(100.058 0.0688023 -0.00127416)
(100.112 0.101516 -0.00321774)
(100.191 0.143209 -0.00706106)
(100.305 0.196308 -0.013889)
(100.465 0.262148 -0.025353)
(100.687 0.338259 -0.0438279)
(100.988 0.411901 -0.0725616)
(101.379 0.445183 -0.11545)
(101.832 0.38344 -0.176028)
(102.252 0.15347 -0.255296)
(102.471 -0.255378 -0.347481)
(102.362 -0.670788 -0.44021)
(101.987 -0.903222 -0.52014)
(101.547 -0.95701 -0.579366)
(101.184 -0.926863 -0.61949)
(100.923 -0.873918 -0.646179)
(100.736 -0.820716 -0.664401)
(100.598 -0.773631 -0.677069)
(100.494 -0.735 -0.685849)
(100.417 -0.707251 -0.691968)
(100.359 -0.689109 -0.6968)
(100.315 -0.677675 -0.700726)
(100.281 -0.670988 -0.703698)
(100.256 -0.667547 -0.705738)
(100.237 -0.665987 -0.706943)
(100.223 -0.665323 -0.707383)
(100.212 -0.665016 -0.707101)
(100.205 -0.664799 -0.706153)
(100.2 -0.664524 -0.70463)
(100.196 -0.664149 -0.702661)
(100.195 -0.663663 -0.70041)
(100.195 -0.663099 -0.698065)
(100.196 -0.662419 -0.695891)
(100.198 -0.661644 -0.694101)
(100.202 -0.660737 -0.692946)
(100.207 -0.659662 -0.692731)
(100.215 -0.658409 -0.693812)
(100.23 -0.657044 -0.696637)
(100.006 0.00695583 -0.000529071)
(100.025 0.0145447 -0.00115942)
(100.063 0.0234898 -0.00252354)
(100.122 0.0345477 -0.00504281)
(100.208 0.0485115 -0.00980048)
(100.329 0.0660274 -0.0177738)
(100.494 0.0870777 -0.0306341)
(100.715 0.110213 -0.0505976)
(100.998 0.130345 -0.0805874)
(101.339 0.135468 -0.123214)
(101.703 0.106307 -0.180516)
(102.018 0.0229854 -0.252037)
(102.182 -0.111446 -0.332936)
(102.122 -0.25075 -0.414021)
(101.862 -0.338367 -0.485382)
(101.517 -0.365227 -0.541264)
(101.197 -0.359393 -0.581296)
(100.947 -0.344436 -0.609044)
(100.759 -0.329201 -0.628658)
(100.617 -0.315793 -0.642853)
(100.509 -0.304821 -0.653289)
(100.427 -0.296512 -0.661072)
(100.366 -0.289946 -0.667092)
(100.319 -0.284194 -0.671829)
(100.284 -0.278719 -0.67561)
(100.258 -0.273288 -0.678464)
(100.237 -0.267762 -0.680394)
(100.221 -0.2621 -0.681447)
(100.209 -0.256353 -0.681688)
(100.2 -0.250608 -0.681204)
(100.193 -0.244953 -0.680109)
(100.189 -0.239462 -0.678551)
(100.187 -0.234206 -0.676693)
(100.186 -0.229234 -0.674686)
(100.187 -0.224552 -0.672992)
(100.189 -0.220203 -0.671684)
(100.192 -0.216209 -0.670965)
(100.198 -0.212599 -0.671125)
(100.205 -0.209503 -0.6725)
(100.216 -0.20745 -0.675514)
(99.9942 0.00508167 0.0130408)
(99.9744 0.0103439 0.0267999)
(99.9374 0.0159547 0.0427014)
(99.8824 0.0219272 0.0623356)
(99.8078 0.0279886 0.0874088)
(99.7116 0.0333905 0.119916)
(99.5932 0.036563 0.161965)
(99.4549 0.0347188 0.215843)
(99.3049 0.0234661 0.283527)
(99.1613 -0.00305352 0.365723)
(99.0542 -0.050281 0.46098)
(99.0204 -0.115762 0.564561)
(99.0835 -0.182571 0.668235)
(99.2348 -0.232468 0.763238)
(99.4342 -0.256281 0.842717)
(99.6374 -0.262913 0.905548)
(99.8198 -0.260109 0.954066)
(99.9738 -0.252244 0.991693)
(100.099 -0.242447 1.02122)
(100.198 -0.233229 1.04468)
(100.273 -0.225578 1.06352)
(100.331 -0.2195 1.07921)
(100.374 -0.214954 1.09302)
(100.407 -0.212243 1.10554)
(100.433 -0.211138 1.11678)
(100.455 -0.211087 1.12661)
(100.473 -0.21168 1.13489)
(100.488 -0.212629 1.14167)
(100.501 -0.21367 1.1471)
(100.513 -0.214595 1.15128)
(100.524 -0.21528 1.1543)
(100.533 -0.215688 1.15632)
(100.541 -0.215831 1.15756)
(100.548 -0.215761 1.15819)
(100.554 -0.21555 1.15833)
(100.559 -0.21531 1.15805)
(100.564 -0.215158 1.15739)
(100.57 -0.215198 1.15633)
(100.577 -0.215554 1.15471)
(100.589 -0.216429 1.15225)
(99.9944 0.0150997 0.0127281)
(99.9749 0.0308358 0.026169)
(99.9386 0.0477651 0.041778)
(99.8838 0.0660615 0.061145)
(99.8086 0.0851181 0.0860303)
(99.7094 0.102979 0.118573)
(99.5836 0.115268 0.161212)
(99.4307 0.113764 0.216708)
(99.2559 0.084796 0.287743)
(99.0759 0.00900231 0.376034)