/*--------------------------------*- C++ -*----------------------------------*\
| =========                 |                                                 |
| \\      /  F ield         | OpenFOAM: The Open Source CFD Toolbox           |
|  \\    /   O peration     | Version:  2306                                  |
|   \\  /    A nd           | Website:  www.openfoam.com                      |
|    \\/     M anipulation  |                                                 |
\*---------------------------------------------------------------------------*/
FoamFile
{
    version     2.0;
    format      ascii;
    arch        "LSB;label=32;scalar=64";
    class       volVectorField;
    location    "1.2";
    object      Force;
}
// * * * * * * * * * * * * * * * * * * * * * * * * * * * * * * * * * * * * * //

dimensions      [1 1 -2 0 0 0 0];

internalField   uniform (0 0 0);

boundaryField
{
    walls
    {
        type            calculated;
        value           uniform (0 0 0);
    }
    inlet
    {
        type            calculated;
        value           uniform (0 0 0);
    }
    outlet
    {
        type            calculated;
        value           uniform (0 0 0);
    }
    NASA
    {
        type            calculated;
        value           nonuniform List<vector> 
14179
(
(-0.0145677 -0.133954 1.10867e-05)
(-0.0130379 -0.107761 8.10412e-06)
(-0.0666891 -0.539228 0.00108778)
(-0.102779 -0.826639 0.00413081)
(-0.0662268 -0.53596 0.000564176)
(-0.110972 -0.892498 0.0045181)
(0.212076 0.9206 -0.000470846)
(0.0906346 0.454942 -5.94437e-05)
(0.695073 3.40827 0.00343024)
(0.101 0.506992 -6.66622e-05)
(-0.000780854 -0.0092571 5.97462e-06)
(-0.0179814 -0.147222 0.000720603)
(0.129467 0.646694 -0.00297804)
(-0.0358324 -0.325842 0.00171457)
(0.0613825 0.306245 -0.00137709)
(1.37887 0.930158 0.00284039)
(1.39192 0.922593 -0.000492494)
(0.0219308 0.122934 -6.87106e-05)
(0.169104 1.00349 -0.000146898)
(1.27443 0.844768 -0.00447363)
(-0.0171101 -0.239382 -3.27862e-07)
(-0.0213533 -0.198516 -0.000103392)
(-0.0195763 -0.271744 -0.000210323)
(-0.00873827 -0.063624 4.85538e-06)
(-0.0132213 -0.109326 3.04553e-05)
(-0.00944374 -0.0687631 2.46074e-05)
(-0.012969 -0.106827 0.000516405)
(-0.0151793 -0.10878 0.000543729)
(-0.0133455 -0.121905 0.000588104)
(-0.015641 -0.214709 0.0041112)
(0.0465486 0.203283 -2.19729e-06)
(0.0523214 0.246707 -7.76535e-06)
(0.0562721 0.265329 -0.000107722)
(0.0459171 0.199996 -2.54331e-05)
(0.0680457 0.249564 -5.63262e-06)
(0.066149 0.242504 -2.69041e-05)
(0.0350218 0.127029 -2.65155e-06)
(0.0348244 0.126265 -1.28424e-05)
(-0.00204247 -0.00977609 0.000163681)
(-0.0130258 -0.0633874 0.000783571)
(0.167409 0.611391 -0.00231065)
(0.0977094 0.352299 -0.000930375)
(0.104296 0.523529 -0.000122336)
(-0.00605548 -0.0425506 4.66465e-06)
(-0.00550605 -0.038685 2.63243e-06)
(0.163005 0.818706 -0.000196104)
(-0.00984727 -0.0681733 0.00037399)
(0.0961201 0.479923 -0.00148094)
(0.0892916 0.44626 -0.00150903)
(0.107015 0.437242 -0.000393558)
(0.0839498 0.312078 -2.62638e-05)
(0.0835905 0.310754 -7.17684e-05)
(-0.0615708 1.50173 -0.000236147)
(1.38865 0.923318 -0.000773196)
(-0.0602129 1.47956 7.95731e-05)
(-0.00251179 1.2232 -0.000213693)
(0.0742065 1.12268 1.35435e-05)
(0.0693656 1.04849 -0.000236919)
(-0.00240465 1.19142 -1.25666e-05)
(0.102235 0.4018 -3.46194e-05)
(0.169096 1.0027 -0.000277095)
(0.00765722 0.0278586 -1.52854e-05)
(-0.0228796 0.568133 -0.001805)
(0.92128 0.62883 0.0753003)
(-0.000749754 0.533119 -0.00198688)
(0.0269226 0.408514 -0.00140538)
(0.126458 0.740211 0.00541496)
(-0.0146828 -0.146894 1.44853e-05)
(-0.0145098 -0.133508 2.18658e-05)
(-0.10122 -0.814203 0.00406323)
(-0.0115142 -0.0912962 7.61369e-06)
(-0.0130155 -0.107584 1.7321e-05)
(1.32019 0.874078 -0.00527585)
(1.27304 0.843125 -0.00487601)
(0.343667 2.03804 -0.0110542)
(0.25864 1.52824 -0.00765752)
(-0.112195 -0.903576 0.00308851)
(-0.0571198 -0.35551 0.00183921)
(-0.0559899 -0.350916 0.00186514)
(-0.0431275 -0.253005 0.00133249)
(0.155334 0.669953 -0.0035271)
(0.174172 0.7531 -0.00388462)
(0.762129 1.30853 -4.95518e-05)
(0.762519 1.30726 -0.000316575)
(0.0931077 0.467301 -6.63944e-05)
(0.0806083 0.387247 -4.02996e-05)
(-0.00038618 -0.0038725 -3.80406e-07)
(0.00133381 0.00660396 -3.76576e-07)
(0.00136371 0.00677318 -2.37816e-06)
(-0.000373554 -0.00378689 4.03395e-07)
(0.1035 0.5196 -5.90658e-05)
(0.0980031 0.505404 -5.49794e-05)
(-0.020155 -0.164762 0.000866106)
(-0.0135877 -0.0974281 0.00053409)
(-0.0203918 -0.145637 0.000763725)
(-0.0124075 -0.0856051 0.000498906)
(-0.0181456 -0.124494 0.000609475)
(0.0846312 0.422312 -0.00220212)
(-0.0201488 -0.183354 0.000946445)
(-0.0249005 -0.341997 0.00189359)
(-0.0209674 -0.294516 0.000916143)
(0.0793659 0.396412 -0.00203914)
(1.37599 0.924142 -0.00266214)
(0.109943 0.648257 -0.000128568)
(0.117241 0.65575 -5.4676e-05)
(0.119839 0.670036 -0.000127058)
(0.180564 1.25715 -0.000200749)
(0.10372 0.615228 -0.000113498)
(0.170651 1.01246 -0.000192258)
(0.027522 0.0260266 2.04403e-05)
(0.324595 -0.119614 0.00325452)
(0.344914 -0.136746 0.00161998)
(0.0207404 0.019967 -5.38275e-05)
(-0.00659347 -0.0283073 0.000219684)
(0.0218435 0.0805352 -0.000361071)
(0.00250602 0.00863518 2.69029e-05)
(0.0218887 0.0881267 -0.000290193)
(-0.00941663 -0.0420421 0.000236399)
(-0.00180687 -0.0102211 0.000133201)
(0.00436314 0.0182214 -3.85194e-05)
(-0.0180858 -0.0874716 0.000454526)
(-0.00108746 0.730355 -0.00349641)
(0.0405407 0.605774 -0.00299419)
(-0.00158506 0.978903 -0.00475743)
(0.0316481 0.479199 -0.00267903)
(-0.0347112 0.867235 -0.00434113)
(1.10176 0.741163 -0.00420271)
(-0.0470415 1.16275 -0.00560444)
(0.108578 0.642657 -0.00420944)
(0.154361 0.604528 -0.00332405)
(0.11617 0.45434 -0.0022699)
(0.106907 0.390111 -0.00193016)
(0.150994 0.551697 -0.0027302)
(0.0621983 0.224427 -0.00110844)
(0.084729 0.306252 -0.00158661)
(-0.0132297 -0.149046 6.27119e-06)
(-0.0169967 -0.237466 3.22262e-05)
(-0.0105691 -0.0813939 7.09735e-06)
(-0.0085879 -0.0625341 9.13817e-06)
(0.000644288 0.00195011 0.535191)
(-0.0130002 -0.102298 0.000501734)
(0.000614135 0.00186317 0.509039)
(-0.0144562 -0.110155 0.000551192)
(0.000935552 0.00225791 0.578584)
(-0.0130723 -0.130523 0.000694987)
(0.00118983 0.00270297 0.579445)
(-0.012176 -0.140278 0.00153896)
(0.0521187 0.245737 -5.00442e-05)
(0.0388778 0.176812 -1.58865e-05)
(0.0391923 0.178265 -3.71588e-05)
(0.0461365 0.200926 -3.10722e-05)
(0.0454021 0.199962 -1.79839e-05)
(0.0456376 0.201021 -3.84508e-05)
(0.0672304 0.24649 -1.47578e-05)
(0.0238221 0.118469 -2.28376e-05)
(0.0212853 0.107977 -2.10045e-05)
(0.0351352 0.127402 -4.04193e-06)
(0.030608 0.107652 -2.9011e-06)
(-0.00646596 -0.0295935 0.000295974)
(-0.00548197 -0.0261127 0.000315263)
(0.00047352 0.00150586 0.318849)
(0.000471057 0.0014527 0.311728)
(0.000460142 0.00142589 0.308201)
(0.000334098 0.00142161 0.353265)
(0.0918709 0.313066 -0.000578178)
(0.157275 0.549945 0.00214847)
(1.79955e-06 0.00143742 0.331554)
(0.000383115 0.000792352 0.299986)
(0.000122517 0.000497217 0.106023)
(0.0804428 0.282379 -0.000722223)
(0.284541 0.661047 -1.16796e-05)
(0.166679 0.587636 4.47126e-05)
(0.164999 0.58176 -6.20295e-05)
(0.0750008 0.350275 -2.856e-05)
(0.0766422 0.357987 -5.45035e-05)
(0.122981 0.587444 -5.30586e-05)
(0.077519 0.345194 -5.58717e-05)
(0.0789343 0.358265 -2.51492e-05)
(0.0809028 0.367144 -5.77073e-05)
(0.0761525 0.339205 -1.85305e-05)
(-0.00489871 -0.0344039 4.26762e-06)
(-0.0059819 -0.0420375 5.01331e-06)
(0.152549 0.80801 -6.94703e-05)
(0.267761 0.461867 0.00983521)
(0.00121437 0.00491125 0.866197)
(0.000351398 0.00259684 0.413361)
(0.0488351 0.142067 -0.000314435)
(-0.0118344 -0.0738286 0.000449692)
(-0.0118723 -0.0749586 0.000597842)
(0.00108247 0.00304616 0.680614)
(0.000385576 0.000863275 0.309348)
(0.0953139 0.489253 -0.000536774)
(0.000594089 0.000936419 0.373121)
(0.138721 0.729187 0.00296715)
(0.000615029 0.00174937 0.346702)
(0.00046437 0.00151923 0.328643)
(-0.000259203 0.00127254 0.352041)
(7.08929e-05 0.000633339 0.111619)
(0.0796274 0.380364 -0.00131896)
(0.102101 0.474372 -0.000593807)
(0.000495451 0.000597488 0.204635)
(9.84094e-05 0.000717193 0.106846)
(0.167743 0.705006 -0.000425065)
(0.0839729 0.312165 -4.10743e-05)
(0.0799621 0.306097 -3.21053e-05)
(0.0953259 0.388608 -6.13634e-05)
(0.0669067 0.269481 -1.81767e-05)
(-0.872086 2.78794 -0.021382)
(-0.0611678 1.49802 -8.91706e-05)
(-0.190168 1.77728 0.000772435)
(0.0739063 1.11597 -0.000137285)
(0.0549145 1.1747 -8.21127e-05)
(-0.00249858 1.23786 -6.84214e-05)
(0.029155 1.1013 -5.2078e-05)
(0.112265 1.23245 -0.000132525)
(0.144679 1.86837 -0.000130955)
(0.143761 1.85603 -0.000183368)
(0.112471 1.2351 -0.000112058)
(0.126652 1.294 -0.000172017)
(0.129742 1.20727 -4.96645e-05)
(0.131835 1.22709 -0.000200622)
(0.124408 1.27066 -5.38258e-05)
(0.0717249 0.297227 -3.66608e-05)
(0.0650243 0.258035 -3.12251e-05)
(0.101494 0.398815 -4.04335e-05)
(0.111295 0.753982 -0.000140368)
(0.108703 0.684623 -0.000115453)
(-0.000239727 0.00178362 0.569677)
(0.0010729 0.00434433 0.89752)
(0.00116001 0.00373364 0.00012518)
(0.000532574 0.00440343 0.7423)
(0.0022307 0.00766159 0.000109253)
(0.000593909 0.0108219 0.274902)
(-0.0607124 0.582192 -0.00240735)
(0.00762121 0.000631817 1.74881)
(0.00042928 0.00117532 0.303437)
(0.0141 0.515933 -0.00198729)
(0.000812536 0.000608452 0.244605)
(0.0231181 0.484352 -0.00174871)
(0.0609551 0.524597 -0.00198546)
(0.0606713 0.514682 -0.00193262)
(0.000417991 0.000948262 0.243653)
(0.000449466 0.00103899 0.268137)
(0.0571669 0.52759 -0.0018843)
(0.0519789 0.524553 -0.00158033)
(0.0470693 0.515269 -0.000245671)
(2.39848e-05 1.29056e-05 0.224799)
(-0.0192286 -0.105565 0.0014347)
(0.000294714 0.00183525 0.505205)
(0.0907809 0.504921 -0.00151606)
(0.000464635 0.00147225 0.318956)
(0.000466967 0.00147819 0.320107)
(0.483954 -0.192793 -0.00367291)
(0.222607 0.21048 0.00165309)
(0.000190754 0.000265506 0.0769856)
(-0.0536588 -0.527518 0.00182951)
(-0.0708866 -0.572469 0.00199523)
(-0.0575323 -0.565044 0.00245692)
(-0.0713895 -0.576477 0.00205033)
(-0.0786059 -0.633921 0.00277014)
(-0.0612942 -0.601548 0.00288031)
(-0.0868909 -0.699937 0.00336841)
(0.17676 0.765088 -0.0039479)
(0.442841 2.16861 -0.0109595)
(0.180297 0.780786 -0.00401619)
(0.422627 2.06909 -0.0104878)
(-0.0662832 -0.536282 0.000633858)
(-0.0434394 -0.270874 0.00137802)
(-0.106788 -0.858617 0.00430619)
(-0.0489536 -0.304841 0.00155616)
(1.38621 0.918919 -0.00119655)
(1.39125 0.922152 -0.000551483)
(0.223407 0.969911 -0.000631682)
(0.612637 3.0055 -0.003304)
(0.624396 3.0638 -0.00208261)
(0.211504 0.917776 -0.000960937)
(0.430807 2.55494 -0.00174599)
(0.480828 2.85072 -0.00321417)
(-0.00122309 -0.0108678 1.31075e-05)
(-0.000843555 -0.00914034 6.92564e-06)
(0.0219274 0.124021 -0.000134567)
(0.0222684 0.125427 -8.67703e-05)
(0.0496205 0.215366 -0.000974369)
(0.0362229 0.164532 -0.00074109)
(0.0597042 0.259917 -0.00121644)
(0.0280136 0.126345 -0.000538141)
(-0.110022 -0.885476 0.0044751)
(-0.0700071 -0.508805 0.0025834)
(0.0168851 0.0791332 -0.00027648)
(-0.0112967 -0.0625823 0.000377901)
(0.0627658 0.228891 -0.00120022)
(0.0706029 0.257438 -0.00132673)
(0.0340698 0.122821 -0.000646108)
(0.0394089 0.142062 -0.000732835)
(0.287524 1.30063 -0.000684226)
(0.176742 0.766647 -0.000241862)
(0.330102 1.56062 -0.000849222)
(0.15043 0.754906 -0.000270787)
(-0.0189306 -0.159317 0.000207263)
(-0.0433241 -0.321093 0.000418761)
(-0.00704265 -0.0514572 -2.98285e-06)
(9.89678e-05 -0.00451735 3.34987e-06)
(-0.0187937 -0.128751 6.92876e-05)
(-0.0249572 -0.174428 0.00012777)
(0.0961079 0.39299 7.10138e-05)
(0.0832497 0.309542 -0.000164802)
(0.0834373 0.310198 -9.89208e-05)
(0.107461 0.440932 -0.000820577)
(0.163888 0.719939 -0.00034926)
(0.14062 0.648096 -0.000216105)
(0.171249 0.75292 -0.000399288)
(0.179926 0.839105 -0.000244602)
(-0.00262574 1.24226 -0.000239935)
(0.0604315 0.913643 -0.000484472)
(-0.00278886 1.26854 -0.000580807)
(0.066786 1.00976 -0.000294878)
(-0.0620551 1.51406 -0.000279003)
(1.39028 0.922744 -0.000479022)
(-0.0628545 1.53281 -0.000676781)
(0.495961 4.25434 -0.00260523)
(0.0968034 0.380336 -0.000100258)
(0.0821523 0.32271 -0.000178699)
(0.0738017 0.270454 -7.6301e-05)
(0.0662924 0.243034 -3.80451e-05)
(0.0561993 0.2946 -0.000201277)
(0.182182 0.899206 -0.00135871)
(0.0211686 0.1178 -9.29108e-05)
(0.0466241 0.250141 -0.000139199)
(0.810101 5.07002 0.000988784)
(0.371935 2.485 -5.64895e-05)
(0.0412518 0.149499 -3.28656e-05)
(0.0348267 0.126285 -1.60505e-05)
(1.25612 0.834559 -0.00337586)
(0.0893815 0.618977 -0.00314262)
(0.244782 0.229608 -0.00117438)
(0.495208 -0.20532 0.000479896)
(0.231767 0.218078 -0.00119406)
(0.514897 -0.213849 0.000235624)
(0.066617 0.244233 -2.10009e-05)
(0.0308103 0.108314 -8.85228e-06)
(0.0350393 0.127056 -5.676e-06)
(0.284396 0.660744 -3.62933e-05)
(0.273852 0.80395 -0.00014274)
(0.000995539 0.00337576 0.732574)
(0.00040816 0.00183379 0.362198)
(0.000591348 0.000965699 0.382037)
(-0.193891 1.79643 -0.00028113)
(-0.0617417 1.50832 -0.000126544)
(1.38438 0.923831 -0.00143174)
(0.0299511 0.0283148 2.07844e-05)
(0.348894 -0.1434 0.000131629)
(0.348706 -0.141771 0.000558975)
(0.030167 0.0284777 1.1266e-05)
(0.000611669 0.00222101 0.547622)
(0.000466749 0.0011386 0.380072)
(0.000425792 0.00121659 0.341241)
(0.000640273 0.0018049 0.363526)
(-0.0929754 -0.748449 0.00369258)
(1.3563 0.898077 -0.00542726)
(1.34254 0.888936 -0.00537151)
(1.31633 0.871536 -0.00526129)
(1.34148 0.888222 -0.0053682)
(0.394059 1.9282 -0.00979622)
(0.173665 0.751104 -0.00388078)
(0.175507 0.75954 -0.00392125)
(0.415198 2.03256 -0.0103134)
(0.267625 1.58157 -0.00796777)
(0.286005 1.69049 -0.00847722)
(-0.0254314 -0.150211 0.000779548)
(-0.031984 -0.188127 0.000976977)
(-0.0560759 -0.348857 0.00179517)
(-0.050909 -0.316886 0.00162104)
(-0.0413377 -0.242411 0.00126854)
(-0.0344439 -0.202362 0.00105269)
(0.251949 2.14397 -0.0106418)
(0.239076 2.03355 -0.0101752)
(0.0250759 0.0925622 -0.00042608)
(0.0233874 0.0945015 -0.000473389)
(0.0350155 0.142354 -0.000462341)
(0.033128 0.122521 -0.000589778)
(0.00164972 0.00618377 4.07835e-05)
(0.026758 0.114411 -0.000429956)
(0.0359252 0.155137 -0.000667252)
(0.02125 0.094406 -0.000335752)
(0.0410652 0.152057 -0.000747996)
(0.0450147 0.183547 -0.000645425)
(0.0353971 0.130966 -0.000635371)
(0.0424011 0.633307 -0.00311734)
(-0.00167097 1.02225 -0.00496789)
(-0.00186604 1.12679 -0.00547339)
(0.0466976 0.697754 -0.00343937)
(-0.0544416 1.34445 -0.0064856)
(1.30739 0.865577 -0.00521634)
(-0.0569175 1.40522 -0.00678153)
(-0.0488855 1.20802 -0.00582615)
(-0.0532385 1.31493 -0.00634402)
(1.30424 0.863482 -0.00520346)
(-0.00192108 1.15514 -0.00560981)
(0.0510024 0.763192 -0.00375373)
(-0.00202951 1.211 -0.00588285)
(0.0480092 0.717834 -0.00350948)
(0.224727 1.32894 -0.00643861)
(0.408658 2.54131 -0.0148783)
(0.235485 1.56903 -0.00788626)
(0.245386 1.44899 -0.00737479)
(0.401713 2.50569 -0.0125083)
(0.374484 2.33503 -0.0119085)
(0.194311 1.29179 -0.00781292)
(-0.0818155 -0.600916 0.00259302)
(-0.102988 -0.828755 0.00429477)
(-0.0672459 -0.446487 0.00228537)
(-0.0571681 -0.356303 0.00186343)
(-0.0803595 -0.538847 0.00266466)
(-0.0533034 -0.332986 0.00177735)
(-0.0244338 -0.135972 0.000748547)
(-0.0448541 -0.263567 0.00141218)
(0.00358792 0.0113267 0.000176943)
(-0.047313 -0.279242 0.00152883)
(0.229093 1.02949 -0.00555735)
(0.177688 0.767886 -0.00393891)
(0.235773 1.11119 -0.00567049)
(0.175672 0.759399 -0.00390399)
(0.223039 1.0057 -0.00515651)
(0.239183 1.12664 -0.00616792)
(0.364882 1.78368 -0.00926598)
(0.104267 0.407705 -0.00205016)
(0.0882986 0.345183 -0.00176756)
(0.0940306 0.343025 -0.00171542)
(0.0742612 0.270784 -0.00138597)
(0.0857496 0.335249 -0.00173021)
(0.079873 0.312339 -0.00162761)
(0.0545832 0.196887 -0.000981942)
(0.0419105 0.151084 -0.000773417)
(0.123421 0.286103 -0.00141864)
(0.104758 0.242731 -0.00116341)
(-0.0207569 -0.157353 0.000833933)
(-0.0182523 -0.130576 0.000695835)
(0.0803036 0.410523 -0.00236961)
(0.0848663 0.423667 -0.00211937)
(0.122716 0.647982 -0.00388463)
(-0.0193281 -0.191078 0.000917005)
(-0.0199805 -0.182226 0.000944353)
(-0.0172375 -0.189762 0.000661237)
(-0.0213259 -0.295811 0.00144571)
(0.0762394 0.364927 -0.00198806)
(0.0807805 0.403333 -0.00200809)
(-0.00419464 -0.0177154 0.000142588)
(0.00586536 0.0225838 -5.91014e-07)
(-0.000735473 -0.00360711 8.75681e-05)
(0.0127744 0.0467972 -0.000163813)
(0.0175515 0.644938 -0.00312021)
(-0.00130742 0.844097 -0.00409612)
(0.0267279 0.564202 -0.00281235)
(0.0358922 0.537396 -0.00271886)
(-0.105061 0.998531 -0.00617754)
(-0.0410363 1.01715 -0.0049446)
(1.2204 0.815074 -0.00175869)
(-0.456754 1.48644 -0.00664242)
(-0.044905 1.11088 -0.00536971)
(-0.140348 1.30599 -0.00619823)
(-0.0119165 -0.0622832 0.000375878)
(-0.00875297 -0.0450497 0.00028356)
(-0.0105355 -0.0539758 0.000333674)
(-0.010116 -0.0530745 0.000325812)
(-0.0248909 -0.136643 0.000622018)
(0.000904589 0.00215853 0.387756)
(0.0579546 0.390004 -0.0019706)
(0.091292 0.63237 -0.00329542)
(0.0599275 0.402985 -0.00209302)
(0.124587 0.454785 -0.00223089)
(0.151382 0.552882 -0.00271193)
(0.0717996 0.259155 -0.00126803)
(0.0608617 0.212941 -0.00105129)
(0.0798505 0.279879 -0.00155471)
(0.0877303 0.316853 -0.00156603)
(0.448183 -0.187285 -0.00233465)
(0.208697 0.191663 -0.000148451)
(0.255479 0.237638 -0.00101897)
(0.520654 -0.217202 -0.00058395)
(0.217703 0.943883 -0.00474707)
(0.534366 2.61936 -0.0128344)
(0.214557 0.930382 -0.00458493)
(0.540909 2.65104 -0.0131328)
(-0.0664811 -0.537671 0.000899423)
(-0.00167361 -0.0136015 2.94031e-05)
(-0.00144484 -0.0121907 2.16203e-05)
(0.24257 1.05218 -0.00172958)
(0.674271 3.30708 -0.00666401)
(0.22513 0.976488 -0.00198729)
(-0.0625054 -0.454444 0.00227923)
(0.176357 0.775787 -0.000740167)
(0.14352 0.662581 -0.000728272)
(0.176823 0.777909 -0.000855327)
(0.143241 0.661216 -0.000636442)
(0.0621742 0.227782 -0.0002588)
(0.0676966 0.248062 -0.000238251)
(-0.0335459 -0.246091 0.000263064)
(0.162164 0.802833 -0.000881041)
(0.0635897 0.3345 -0.000366573)
(0.0320304 0.116048 -0.000133221)
(0.0381421 0.13822 -0.000135846)
(1.39173 0.92256 -0.000439406)
(0.0303785 0.0285575 -3.49107e-06)
(0.345859 -0.143552 1.24903e-05)
(0.0309316 0.0290697 -8.81907e-06)
(0.34416 -0.142782 5.4622e-06)
(-0.0235741 -0.148518 0.000731031)
(-0.025857 -0.16258 0.000807603)
(-0.0414557 -0.258655 0.0013143)
(-0.0974035 -0.783771 0.00389439)
(-0.0366707 -0.229187 0.00115965)
(0.182044 0.788496 -0.00405213)
(0.193752 0.839968 -0.00430428)
(0.102176 0.447277 -0.00220394)
(0.0763409 0.350485 -0.00172132)
(0.105663 0.462655 -0.00228285)
(0.0730466 0.335226 -0.00164223)
(0.0431736 0.19685 -0.000918161)
(0.0682405 0.297606 -0.00141705)
(0.0751047 0.327892 -0.00157873)
(0.0490063 0.223911 -0.00106367)
(0.0573694 0.20988 -0.00112799)
(0.0557834 0.203943 -0.0010962)
(0.0610246 0.222567 -0.00117261)
(0.0572971 0.209069 -0.00111252)
(0.0131689 0.0671778 -0.00030698)
(0.0669044 0.32823 -0.00159084)
(-0.0695494 -0.505341 0.00256104)
(0.0243582 0.116552 -0.000484428)
(-0.00757808 -0.0427195 0.000267908)
(0.0313992 0.151685 -0.000674075)
(0.0311464 0.112693 -0.000611604)
(0.0297901 0.107703 -0.000584698)
(0.0328812 0.118549 -0.000627184)
(0.0303807 0.109586 -0.000587115)
(1.31927 0.873462 -0.00526947)
(1.28689 0.852029 -0.00506181)
(0.126016 0.118706 -0.000684649)
(0.360473 -0.149661 0.000454439)
(0.370147 -0.153676 0.000468446)
(0.114271 0.107631 -0.000624561)
(0.473586 -0.19638 0.000546787)
(0.215561 0.203026 -0.00113652)
(0.201565 0.189907 -0.00106985)
(0.453817 -0.188288 0.000539365)
(0.000154783 -0.00735547 1.5794e-05)
(4.59778e-06 -0.0182666 5.27666e-05)
(-0.0525728 -0.517029 0.00150264)
(-7.18656e-05 -0.0238757 8.41742e-05)
(-0.000141631 -0.0289434 8.37455e-05)
(-0.0686941 -0.555055 0.00162238)
(-0.0560145 -0.550331 0.00221507)
(-0.000220274 -0.0347241 0.000152692)
(-0.000327359 -0.0425404 0.000172243)
(-0.0747399 -0.603143 0.00240908)
(-0.0753518 -0.608014 0.00245975)
(-0.000238538 -0.0360669 0.000175045)
(-0.0601332 -0.590288 0.00273901)
(-0.000435906 -0.0505457 0.000236646)
(-0.0837904 -0.675232 0.00314884)
(1.37421 0.910075 -0.00538279)
(1.3721 0.908648 -0.00541952)
(1.36935 0.90679 -0.00544638)
(1.37402 0.909913 -0.00543177)
(0.196065 0.850281 -0.00428553)
(0.518586 2.54173 -0.0127099)
(0.534453 2.61948 -0.0130018)
(0.189163 0.820316 -0.00415677)
(0.177572 0.768723 -0.00396232)
(0.233973 1.05592 -0.00540522)
(0.264419 1.24748 -0.00633055)
(0.436384 2.13683 -0.0108095)
(0.179055 0.775276 -0.00399172)
(0.241257 1.08919 -0.00555811)
(0.253949 1.19775 -0.00609677)
(0.429003 2.10049 -0.0106431)
(1.39194 0.922695 -0.00240621)
(1.38657 0.919163 -0.00190464)
(1.38388 0.917367 -0.00129101)
(1.3834 0.917067 -0.001824)
(0.473189 2.80506 -0.0035338)
(0.443454 2.62818 -0.00418113)
(-0.00127194 -0.0111356 1.48109e-05)
(-0.0664244 -0.537257 0.00083228)
(-0.00140567 -0.0119469 1.97695e-05)
(0.0215103 0.121615 -0.000248504)
(0.021763 0.123089 -0.00021005)
(0.0218898 0.123832 -0.000149875)
(0.02179 0.123253 -0.000195421)
(0.213032 0.92427 -0.00107997)
(0.227705 0.987895 -0.00149467)
(0.601218 2.94886 -0.00456898)
(-0.0567432 -0.377021 0.00190211)
(-0.0451792 -0.281591 0.00143397)
(-0.065883 -0.478796 0.0024103)
(-0.0471331 -0.293626 0.00149715)
(-0.0612386 -0.406605 0.00205937)
(0.484431 4.14973 -0.00397202)
(0.505912 4.33367 -0.00336176)
(0.0831774 0.30928 -0.000188423)
(0.107504 0.441145 0.000287325)
(0.107647 0.441765 -0.000945792)
(0.0830971 0.309015 -0.000255931)
(0.139605 0.643711 -0.000482718)
(0.174713 0.768352 -0.00051808)
(0.176048 0.774361 -0.000631736)
(0.142765 0.658835 -0.000544477)
(0.10763 0.441701 0.000160155)
(0.0830616 0.308919 -0.000346944)
(0.107668 0.441876 -0.00107238)
(0.0830581 0.308881 -0.000281177)
(0.0588629 0.890542 -0.000522216)
(-0.00280912 1.27381 -0.000672217)
(-0.00270676 1.20564 -0.000952462)
(0.0558219 0.845462 -0.000662448)
(-0.0580314 1.4129 -0.00117918)
(1.38877 0.920586 -0.000938064)
(-0.0502835 1.22416 -0.00127842)
(-0.0627883 1.53076 -0.000791865)
(-0.0602331 1.46695 -0.00110858)
(1.39078 0.921896 -0.000827702)
(-0.00256775 1.135 -0.00097495)
(0.064859 0.982276 -0.00107224)
(-0.00234605 0.983359 -0.00102399)
(0.0559645 0.84779 -0.000731036)
(0.311103 1.40781 -0.000894362)
(0.222808 0.967198 -0.000775475)
(0.616912 3.02686 -0.00287793)
(0.354319 1.675 -0.00181233)
(0.350271 1.65666 -0.00104648)
(0.626543 3.07448 -0.0025825)
(0.213643 0.927239 -0.00087023)
(0.305761 1.38301 -0.00147082)
(0.0757343 0.297514 -0.000195886)
(0.0692096 0.2718 -0.000235354)
(0.0724582 0.265545 -9.43074e-05)
(0.0672008 0.246286 -0.00021537)
(0.0694665 0.272774 -0.000254889)
(0.705278 4.4137 -0.00332801)
(0.447233 2.65214 -0.00223921)
(0.717612 4.49237 -0.00373671)
(0.462634 3.09502 -0.00302516)
(0.440792 2.94862 -0.00241073)
(0.467466 2.77198 -0.00268526)
(-0.0316802 -0.233111 0.000166139)
(-0.0201049 -0.136133 0.000147805)
(-0.00113375 -0.0103996 1.1116e-05)
(-0.0193805 -0.131986 9.43448e-05)
(-0.00110615 -0.0104132 9.76332e-06)
(0.0627112 0.329319 -0.000226556)
(0.159476 0.788616 -0.00054295)
(0.161974 0.801534 -0.000661102)
(0.0478853 0.258048 -0.000282269)
(0.0219781 0.124242 -0.000118628)
(0.0477787 0.256936 -0.000179187)
(0.021999 0.124193 -0.000101787)
(0.0436766 0.158306 -4.62042e-05)
(0.0386477 0.140091 -0.00012713)
(0.064921 0.236734 -0.00123558)
(0.0673448 0.245555 -0.00127439)
(0.0314552 0.109941 -0.000579813)
(0.035538 0.128108 -0.000670109)
(0.0372699 0.130268 -0.000671773)
(0.0372023 0.134102 -0.00069684)
(0.273075 0.801856 -0.000394481)
(0.273629 0.803335 -0.000232829)
(0.284336 0.660782 -0.000256543)
(0.284464 0.661044 -0.00020934)
(-0.194627 1.8028 -0.000359907)
(-0.062603 1.5282 -0.000452656)
(1.39121 0.922568 -0.00042534)
(-0.842976 2.74082 -0.00102481)
(-0.063049 1.53838 -0.000571075)
(-0.19582 1.81211 -0.000759481)
(0.0704564 0.258195 -5.65668e-05)
(0.0675956 0.247778 -4.40693e-05)
(0.0371253 0.134542 -2.25302e-05)
(0.0354859 0.124689 -2.37398e-05)
(0.0307562 0.108131 -1.12775e-05)
(0.0353574 0.128185 -1.92484e-05)
(0.415964 2.4619 -0.0121503)
(0.380418 2.2512 -0.0111939)
(-0.00251825 -0.017613 9.83207e-05)
(-0.00514954 -0.032844 0.000175377)
(-0.0298325 -0.187066 0.000938431)
(-0.0268811 -0.16889 0.000840991)
(-0.00970511 -0.0592087 0.000310156)
(-0.00633641 -0.0397144 0.000210029)
(1.35501 0.897228 -0.00542151)
(1.36425 0.903372 -0.00544893)
(1.37046 0.90752 -0.00545285)
(1.36487 0.903794 -0.00544917)
(-0.0230759 -0.136581 0.000709157)
(-0.0175602 -0.104666 0.000543759)
(0.344626 2.0383 -0.0101489)
(0.369548 2.18661 -0.0108828)
(-0.0960522 -0.772993 0.00383456)
(-0.0311799 -0.195365 0.000981837)
(-0.0350092 -0.218953 0.00110628)
(-0.0112617 -0.068217 0.000356061)
(-0.0156273 -0.0934812 0.000486329)
(0.197907 0.858103 -0.00437587)
(0.508338 2.49142 -0.0124978)
(0.190002 0.823893 -0.00417954)
(0.473819 2.32143 -0.011696)
(0.281175 2.39359 -0.0118956)
(0.28936 2.46367 -0.0122523)
(0.0652715 0.266864 -0.000978288)
(0.0531047 0.196869 -0.000983474)
(0.0558793 0.207195 -0.00103683)
(0.0614123 0.250991 -0.00155868)
(0.0972812 0.425695 -0.0020922)
(0.0646506 0.296357 -0.00144211)
(0.092963 0.406655 -0.00199251)
(0.068621 0.314735 -0.00153779)
(0.05911 0.219222 -0.00109868)
(0.0567999 0.210622 -0.00105495)
(0.0699649 0.286171 -0.00105313)
(-0.00234867 1.37063 -0.00665491)
(0.057196 0.856421 -0.00420677)
(0.0584683 0.875593 -0.00429907)
(-0.00229449 1.34442 -0.00652851)
(-0.0640525 1.58008 -0.00762067)
(1.35276 0.895719 -0.00541309)
(-0.0647545 1.59713 -0.00770071)
(-0.00236756 1.37963 -0.00669565)
(0.0598976 0.897167 -0.00440045)
(-0.00239929 1.39215 -0.00675373)
(0.0588877 0.881918 -0.00432914)
(-0.0636296 1.56973 -0.00757377)
(1.34988 0.893803 -0.00540165)
(-0.062459 1.54109 -0.00743609)
(0.31461 2.67942 -0.0132736)
(0.308876 2.63037 -0.0130405)
(0.0428531 0.158714 -0.000783391)
(0.0471125 0.174567 -0.000866803)
(0.0550078 0.224651 -0.00138706)
(0.0519147 0.19244 -0.000960386)
(0.0596289 0.243656 -0.000887302)
(0.0485519 0.179923 -0.000894636)
(0.081678 0.356886 -0.00173269)
(0.0593478 0.27181 -0.00131506)
(0.0868452 0.379679 -0.00185248)
(0.054674 0.250168 -0.00120153)
(-0.057591 1.42167 -0.00686306)
(-0.0598288 1.47666 -0.00712555)
(1.32903 0.879961 -0.00531444)
(0.0518295 0.775677 -0.00381604)
(-0.00206396 1.22682 -0.0059617)
(-0.0021678 1.28173 -0.00622519)
(0.0541388 0.810388 -0.00398469)
(-0.0021997 1.29791 -0.00630375)
(0.0566468 0.848128 -0.00416777)
(0.0549292 0.822278 -0.00404116)
(-0.00226984 1.33306 -0.00647578)
(-0.0605005 1.49313 -0.00720515)
(1.3345 0.883586 -0.0053357)
(-0.0619832 1.52947 -0.00738267)
(0.0747828 0.292952 -0.0015419)
(0.0749078 0.293311 -0.0015448)
(0.0551293 0.201371 -0.0010809)
(0.0553994 0.202494 -0.00108855)
(0.0753282 0.295266 -0.0015523)
(0.238742 1.12547 -0.00574753)
(0.400879 1.96192 -0.0099928)
(0.224239 1.01132 -0.00518956)
(0.173686 0.751365 -0.00388913)
(0.174696 0.755898 -0.00390772)
(0.231175 1.04316 -0.00534418)
(0.408601 2.00005 -0.0101524)
(0.249939 1.17872 -0.00600653)
(0.0761508 0.297944 -0.00156499)
(0.0757972 0.296609 -0.00155948)
(0.0748908 0.293198 -0.00154412)
(0.0551587 0.201432 -0.00108054)
(0.0565394 0.206343 -0.00110086)
(0.26127 1.74081 -0.00871158)
(0.416243 2.59673 -0.0130227)
(0.273667 1.61732 -0.00812597)
(0.280144 1.65574 -0.00831562)
(0.446363 2.78509 -0.013937)
(0.436811 2.72544 -0.0136502)
(0.267894 1.78508 -0.00891722)
(-0.00272384 -0.0175434 0.000118027)
(-0.0274513 -0.161901 0.000840062)
(0.0509419 0.248896 -0.00118245)
(0.0053224 0.0256689 -9.28176e-05)
(-0.0298089 -0.175543 0.000911078)
(-0.0101294 -0.0578127 0.000326695)
(-0.0665529 -0.441717 0.00225401)
(-0.054416 -0.338537 0.00173834)
(-0.0669745 -0.486657 0.00245427)
(-0.0527135 -0.328012 0.00167952)
(-0.0627569 -0.416604 0.00211407)
(0.457353 2.85386 -0.0142695)
(0.466333 2.91005 -0.014537)
(0.290765 1.93801 -0.00965052)
(0.285002 1.89948 -0.00946635)
(-0.0216699 -0.120724 0.000660721)
(-0.0390304 -0.228958 0.00119393)
(0.0444062 0.216409 -0.00101354)
(0.00208959 0.00856465 -4.1467e-06)
(0.038293 0.186004 -0.000855871)
(-0.0367123 -0.215504 0.00112118)
(-0.0130719 -0.0738158 0.000410185)
(0.0290442 0.104893 -0.000568425)
(0.0294501 0.106445 -0.000577938)
(0.0290368 0.104838 -0.000567569)
(0.0298746 0.107783 -0.000579378)
(0.119394 0.349591 -0.0017267)
(0.145266 0.425561 -0.00213686)
(0.192794 0.447242 -0.0023079)
(0.187522 0.435002 -0.00224315)
(0.16023 0.371638 -0.00190437)
(0.16837 0.390546 -0.00200899)
(0.15224 0.446046 -0.00224659)
(-0.60141 1.95866 -0.0090289)
(1.31408 0.870017 -0.0052436)
(-0.0561936 1.38746 -0.00669541)
(-0.168223 1.56443 -0.00746572)
(-0.574097 1.86988 -0.0086802)
(-0.504722 1.64334 -0.00747946)
(-0.522734 1.70233 -0.00785331)
(-0.145588 1.35468 -0.00646111)
(-0.0503918 1.24502 -0.00600243)
(1.29715 0.858764 -0.00515049)
(-0.556976 1.81426 -0.00836856)
(0.0862224 0.314466 -0.00158064)
(0.0794112 0.289603 -0.00147198)
(0.13911 0.131054 -0.000751595)
(0.397116 -0.164875 0.000506133)
(0.382689 -0.158883 0.000486306)
(0.15272 0.143887 -0.000819153)
(0.0532251 0.186165 -0.000926125)
(0.0497206 0.179293 -0.000899169)
(0.0452476 0.163138 -0.000828296)
(0.0399768 0.139737 -0.000714307)
(0.183194 0.172614 -0.000975452)
(0.414335 -0.172015 0.000518992)
(0.432119 -0.179361 0.00053363)
(0.168231 0.158513 -0.00089664)
(0.681696 3.34346 -0.00713977)
(0.215907 0.9365 -0.00198726)
(0.247625 1.07399 -0.00264217)
(0.657298 3.2234 -0.00798564)
(0.226897 0.98404 -0.00376832)
(0.652718 3.20009 -0.0115458)
(0.240205 1.04156 -0.00375009)
(0.616194 3.02095 -0.0115235)
(0.230202 0.998288 -0.00460114)
(0.651679 3.19476 -0.0141871)
(0.215804 0.935741 -0.00416517)
(0.642636 3.15032 -0.0144497)
(-0.0666102 -0.538632 0.00102698)
(-0.0339049 -0.248488 0.000505144)
(-0.0497639 -0.362593 0.00175721)
(-0.0612391 -0.445314 0.00223042)
(-0.0999577 -0.804137 0.00400697)
(-0.0531695 -0.52279 0.00169368)
(-0.00538376 -0.162483 0.000561781)
(-0.0053489 -0.161489 0.00051284)
(9.29809e-05 -0.0118224 4.29693e-05)
(-1.10406e-05 -0.0194021 5.70742e-05)
(-0.0018227 -0.0145211 3.2938e-05)
(-0.0673471 -0.544406 0.00133019)
(-0.00226661 -0.017258 4.49252e-05)
(-0.0698862 -0.564522 0.00183921)