/*--------------------------------*- C++ -*----------------------------------*\
| =========                 |                                                 |
| \\      /  F ield         | OpenFOAM: The Open Source CFD Toolbox           |
|  \\    /   O peration     | Version:  2306                                  |
|   \\  /    A nd           | Website:  www.openfoam.com                      |
|    \\/     M anipulation  |                                                 |
\*---------------------------------------------------------------------------*/
FoamFile
{
    version     2.0;
    format      ascii;
    arch        "LSB;label=32;scalar=64";
    class       volScalarField;
    location    "1.2";
    object      p;
}
// * * * * * * * * * * * * * * * * * * * * * * * * * * * * * * * * * * * * * //

dimensions      [0 2 -2 0 0 0 0];

internalField   nonuniform List<scalar> 
111542
(
61.2442
62.5582
65.6948
70.8139
77.9757
87.3697
99.1322
113.271
129.279
145.73
160.09
168.405
166.718
153.947
133.23
110.294
89.0652
70.9528
56.008
44.012
34.5415
27.2591
21.778
17.6053
14.4279
11.9855
10.0079
8.46777
7.31872
6.43608
5.73869
5.17126
4.74601
4.3916
4.05494
3.69233
3.2485
2.71649
1.99287
0.981542
60.0901
61.3624
64.4641
69.519
76.668
86.2054
98.4786
113.716
131.735
151.458
170.206
182.505
180.856
164.088
138.08
111.456
88.3036
69.2011
53.8337
41.7718
32.519
25.5243
20.2728
16.401
13.4889
11.221
9.43463
8.05186
6.98857
6.15513
5.4899
4.95408
4.52311
4.15613
3.81189
3.4508
3.02739
2.49469
1.78
0.82288
57.8082
59.0109
61.9664
66.8335
73.8637
83.5442
96.5618
113.7
135.601
162.096
189.86
210.35
209.574
183.662
147.406
114.498
87.7096
66.6112
50.3878
38.1625
29.1636
22.7591
18.1164
14.7021
11.913
9.63185
7.89896
6.6312
5.69322
4.98578
4.44941
4.04239
3.72874
3.47402
3.24113
2.99167
2.67871
2.24376
1.61019
0.696654
54.4633
55.5366
58.1936
62.6406
69.2426
78.7053
92.1537
111.261
138.411
176.826
211.286
252.972
257.737
216.351
164.085
123.94
91.5288
67.0589
49.2264
36.3248
23.2879
17.3017
14.7633
13.2484
11.2261
9.16091
7.51398
6.27121
5.30085
4.52943
3.92329
3.45234
3.08559
2.791
2.53738
2.29058
2.00249
1.60761
1.00572
0.0639317
50.1832
51.046
53.2007
56.8728
62.485
70.865
83.4387
102.609
132.382
176.69
252.835
338.022
360.726
252.363
167.894
119.989
81.4875
55.5907
38.5639
27.7388
21.0524
6.88663
5.99783
6.33619
5.51625
4.57655
3.92185
3.44784
3.06034
2.74386
2.49742
2.30953
2.16646
2.0512
1.94952
1.84214
1.69529
1.45127
0.984563
-0.0134407
45.1853
45.749
47.1751
49.6524
53.5468
59.5834
69.0838
84.494
110.571
164.892
257.997
451.89
615.218
241.689
168.544
111.64
65.6013
40.0192
24.979
16.1551
15.0178
12.1874
11.8949
7.80313
4.78935
3.28044
2.44283
1.82757
1.35046
1.00854
0.779954
0.63355
0.545295
0.498205
0.479081
0.474809
0.470806
0.455163
0.440679
0.587578
39.7852
39.9743
40.4847
41.406
42.9146
45.3498
49.2999
55.7587
66.439
105.671
181.226
412.217
1945.31
-427.55
198.98
75.8446
30.8814
16.2623
8.15627
-1.55759
-5.04515
15.6851
14.8293
9.29919
5.92105
4.4946
3.76267
3.20205
2.7466
2.40343
2.15243
1.96529
1.82449
1.71812
1.6385
1.57911
1.526
1.4728
1.42061
1.41739
34.392
34.1704
33.6825
32.8876
31.7178
30.0104
27.3771
22.8926
14.1976
16.5061
-0.310246
-161.032
-1000.5
-1045.56
-313.797
-102.265
-46.5387
-25.7653
-16.407
-10.1446
-3.64414
-7.70076
-5.93563
-4.34602
-3.44913
-2.55931
-1.71616
-1.05071
-0.545522
-0.140402
0.199519
0.488622
0.735681
0.945976
1.12188
1.26057
1.34576
1.34519
1.19016
0.742814
29.3859
28.824
27.3978
24.9915
21.3515
15.9374
7.74971
-5.07822
-26.1452
-49.204
-122.55
-266.91
-477.076
-505.709
-320.224
-175.203
-100.286
-60.788
-38.6773
-24.7089
-14.8317
-8.16089
-4.13124
-1.30683
0.365737
1.3818
2.08016
2.55856
2.86367
3.04836
3.15493
3.20874
3.22353
3.20556
3.15392
3.06073
2.90112
2.62488
2.13435
1.23325
25.2691
24.3843
22.1886
18.493
12.9351
4.81042
-7.06105
-24.6217
-51.1294
-92.18
-149.717
-222.226
-287.46
-295.464
-237.789
-164.62
-109.226
-73.6663
-50.6467
-34.7322
-23.4839
-16.0356
-11.0962
-7.62595
-5.18647
-3.45633
-2.16558
-1.1702
-0.399234
0.200882
0.675053
1.05462
1.35731
1.59084
1.75258
1.83396
1.80984
1.63557
1.24867
0.599154
22.3238
21.2172
18.4918
13.9286
7.12648
-2.6166
-16.3781
-35.6227
-62.1948
-97.9484
-142.866
-191.789
-230.013
-236.868
-206.267
-157.338
-112.861
-80.4197
-57.6927
-41.1837
-28.9505
-20.0318
-13.5409
-8.80841
-5.36515
-2.869
-1.0483
0.288798
1.26785
1.97793
2.48717
2.84546
3.08561
3.22521
3.26194
3.20493
3.02907
2.68629
2.10329
1.15112
20.7903
19.5837
16.5758
11.601
4.18533
-6.27899
-20.7825
-40.4418
-66.3923
-98.9794
-136.714
-174.231
-201.631
-207.415
-187.469
-151.347
-113.818
-83.3924
-60.8387
-44.0608
-31.4244
-22.0154
-15.146
-10.1772
-6.62767
-4.07556
-2.22366
-0.866472
0.136008
0.879709
1.43292
1.84347
2.14357
2.35481
2.42095
2.41518
2.29378
2.00467
1.49713
0.720302
60.7519
62.0165
65.0913
70.0648
77.0102
86.1066
97.5182
111.205
126.656
142.529
156.369
164.3
162.413
149.832
129.601
107.25
86.6388
69.0569
54.558
42.8955
33.7155
26.6276
21.2393
17.1669
14.0574
11.6275
9.70017
8.20155
7.06082
6.18762
5.51009
4.97955
4.56512
4.22172
3.90556
3.57498
3.18438
2.68483
1.99643
1.02009
59.6061
60.8425
63.8618
68.7711
75.7053
84.9473
96.8346
111.578
128.999
148.076
166.193
178.137
176.112
159.581
134.206
108.33
85.8678
67.3392
52.4323
40.7217
31.7217
24.8772
19.7143
15.9192
13.07
10.8455
9.09818
7.74641
6.70493
5.8927
5.25145
4.74182
4.33272
3.98819
3.6719
3.34542
2.96528
2.47658
1.80737
0.879986
57.3459
58.5145
61.3842
66.1058
72.9188
82.292
94.8896
111.472
132.673
158.345
185.236
204.921
204.129
178.658
143.276
111.316
85.3138
64.8299
49.0776
37.1965
28.4061
22.0971
17.501
14.109
11.3557
9.13364
7.46822
6.26423
5.38147
4.72047
4.22335
3.84967
3.56501
3.33671
3.13259
2.91692
2.64651
2.2607
1.67454
0.774631
54.0352
55.0756
57.6501
61.9562
68.3443
77.4969
90.5066
109.008
135.348
172.73
207.614
248.455
252.897
211.768
160.582
121.346
89.5821
65.5959
48.1177
35.4482
22.1493
16.1541
13.8615
12.469
10.488
8.47797
6.90789
5.74696
4.85379
4.15213
3.60737
3.18883
2.86759
2.61414
2.40148
2.1997
1.96705
1.63732
1.09925
0.168696
49.802
50.6342
52.7154
56.2612
61.6792
69.7736
81.9368
100.528
129.511
173.801
248.887
332.846
354.626
246.796
164.552
117.873
79.8493
54.2487
37.4051
26.548
19.2437
4.4159
3.9204
4.7097
4.25891
3.61503
3.18329
2.86757
2.5876
2.34247
2.14299
1.98615
1.86619
1.7723
1.69475
1.62182
1.52815
1.35762
0.97172
-0.0124902
44.8629
45.4003
46.7676
49.1447
52.8859
58.6995
67.8847
82.8625
108.371
162.6
255.343
447.603
609.592
236.614
167.589
110.554
64.2746
38.6031
23.5621
14.5466
8.77806
11.104
10.6758
6.39533
3.55831
2.3264
1.7278
1.30033
0.965597
0.72485
0.563429
0.458877
0.397471
0.369338
0.369091
0.393222
0.438357
0.502426
0.59128
0.761162
39.5231
39.7011
40.1727
41.0277
42.4419
44.7497
48.5392
54.8212
65.3716
104.59
180.072
409.73
1936.59
205.713
72.4002
29.9705
16.103
8.0012
-2.00703
-7.98026
15.9954
14.904
8.96992
5.48302
4.05971
3.31948
2.73499
2.25257
1.88086
1.6
1.38422
1.22024
1.09894
1.01718
0.973692
0.966641
0.999985
1.09278
1.32788
34.1864
33.9743
33.47
32.6486
31.4512
29.725
27.1051
22.7233
14.3431
16.8406
0.633997
-158.279
-986.384
-1029.09
-309.222
-100.599
-45.3373
-25.1768
-16.2493
-10.0092
-2.18903
-7.28576
-5.78997
-4.45809
-3.638
-2.75446
-1.92226
-1.27172
-0.776418
-0.377848
-0.0441281
0.239147
0.482536
0.692554
0.875673
1.03439
1.16059
1.22838
1.17098
0.821365
29.269
28.6971
27.2736
24.8816
21.2761
15.938
7.90858
-4.61021
-25.1042
-47.9375
-119.696
-261.804
-469.114
-495.432
-314.489
-171.652
-98.0588
-59.5831
-38.1295
-24.4827
-14.5247
-8.17499
-4.38454
-1.68155
-0.0137526
1.01796
1.71726
2.18623
2.47824
2.64782
2.73818
2.77644
2.77831
2.75223
2.70071
2.62012
2.49061
2.26689
1.85654
1.07363
25.1966
24.3153
22.1441
18.4922
13.0135
5.03271
-6.58864
-23.7266
-49.5419
-89.5076
-145.539
-216.237
-280.102
-287.678
-231.267
-159.98
-106.261
-71.9417
-49.7463
-34.3567
-23.4314
-16.1516
-11.3276
-7.8998
-5.47098
-3.74534
-2.45744
-1.46439
-0.696814
-0.10182
0.366152
0.739315
1.03675
1.26764
1.43272
1.52556
1.52442
1.38795
1.05746
0.487561
22.2907
21.1967
18.504
13.9995
7.30824
-2.25408
-15.7243
-34.5175
-60.4139
-95.218
-138.91
-186.466
-223.655
-230.378
-200.512
-152.982
-109.882
-78.5353
-56.5859
-40.6115
-28.7415
-20.0594
-13.7079
-9.06329
-5.67424
-3.20933
-1.4048
-0.0762798
0.896406
1.60004
2.10251
2.45398
2.68787
2.82356
2.86696
2.81885
2.65964
2.34748
1.81669
0.959918
20.7812
19.5794
16.6214
11.695
4.41956
-5.85456
-20.0539
-39.2672
-64.5451
-96.29
-133.003
-169.466
-196.088
-201.763
-182.406
-147.235
-110.818
-81.4037
-59.6068
-43.3723
-31.1111
-21.9579
-15.2559
-10.407
-6.91095
-4.38434
-2.54593
-1.19525
-0.195991
0.545265
1.09561
1.50233
1.79633
1.99321
2.08914
2.09246
1.98127
1.71573
1.25268
0.56515
59.7943
60.9875
63.8963
68.5844
75.1152
83.6488
94.3311
107.099
121.462
136.166
148.871
155.965
153.835
141.66
122.371
101.205
81.7682
65.214
51.57
40.5894
31.9387
25.2251
20.0846
16.196
13.2293
10.9083
9.07342
7.63983
6.53639
5.68888
5.03297
4.52105
4.116
3.78267
3.48496
3.18441
2.83858
2.39569
1.78891
0.934514
58.6692
59.8354
62.6844
67.3062
73.8192
82.4793
93.5914
107.337
123.542
141.243
157.999
168.782
166.586
150.664
126.539
102.121
80.9899
63.5691
49.5562
38.5476
30.0811
23.5762
18.6483
15.0468
12.3529
10.2329
8.54523
7.21975
6.18514
5.37333
4.73181
4.22255
3.81385
3.47489
3.17443
2.8782
2.54603
2.1257
1.55182
0.759258
56.4521
57.551
60.2502
64.6839
71.0674
79.831
91.5872
107.043
126.799
150.74
175.82
194.173
192.853
168.343
134.825
104.776
80.3467
61.1107
46.3382
35.2329
27.1139
21.1393
16.6983
13.4368
10.8195
8.69501
7.0706
5.86957
4.97354
4.29535
3.78249
3.39654
3.10388
2.8755
2.68324
2.49745
2.28005
1.97545
1.49871
0.726138
53.2085
54.1819
56.5928
60.6199
66.584
75.1176
87.2411
104.496
129.126
164.24
198.568
237.415
241.087
200.979
152.13
115.121
84.9447
62.1538
45.5791
33.5981
20.9677
15.7843
13.6758
12.1465
9.98178
7.80881
6.09299
4.80839
3.82123
3.0561
2.47277
2.03578
1.71298
1.47532
1.29912
1.16081
1.02761
0.843101
0.504994
-0.153437
49.0674
49.8375
51.7724
55.0674
60.0987
67.6184
78.9405
96.3125
123.564
166.728
238.951
319.739
339.7
233.501
155.699
112.32
75.7838
51.1954
35.0805
24.7273
18.2024
5.05814
4.95397
5.53904
4.67431
3.59949
2.81258
2.23068
1.76144
1.38892
1.10772
0.90358
0.764315
0.675378
0.629947
0.622924
0.645089
0.660519
0.551138
-0.0806163
44.2479
44.728
45.9779
48.1557
51.5898
56.9492
65.4758
79.5067
103.69
156.758
247.71
436.069
592.362
219.457
159.537
107.916
62.2108
36.7354
22.0077
13.3114
10.4659
10.7663
9.03132
3.94298
0.594857
-1.02829
-1.86635
-2.39656
-2.74367
-2.94488
-3.03652
-3.05545
-3.01116
-2.91734
-2.77486
-2.57555
-2.29903
-1.90755
-1.31736
-0.272929
39.0205
39.1761
39.5709
40.2954
41.5185
43.5621
46.9993
52.856
63.0005
101.759
177.09
407.694
1915.26
212.91
74.8212
30.1128
14.522
5.88363
-3.76667
-11.4482
11.8661
10.8874
5.13549
1.93157
0.746559
0.176728
-0.268339
-0.626172
-0.886045
-1.06341
-1.17863
-1.24274
-1.2544
-1.21037
-1.09887
-0.897227
-0.569487
-0.0454844
0.792084
33.8214
33.5996
33.063
32.1923
30.9381
29.164
26.5491
22.3304
14.5159
17.5554
3.52853
-147.198
-961.561
-1004.17
-298.967
-94.4151
-42.7603
-24.686
-16.7934
-11.0039
-3.77611
-8.61144
-7.76906
-6.73061
-5.78647
-4.6929
-3.68641
-2.89279
-2.27668
-1.78013
-1.36681
-1.01596
-0.71289
-0.444554
-0.191925
0.0583273
0.316931
0.576973
0.785365
0.737608
29.0338
28.4628
27.0495
24.686
21.1475
15.9559
8.22883
-3.69126
-23.041
-44.8188
-112.795
-248.768
-449.025
-475.436
-300.325
-162.731
-92.9707
-57.0258
-37.0705
-24.2572
-14.7964
-9.3022
-5.86374
-3.24532
-1.54361
-0.458372
0.297099
0.825112
1.17594
1.40085
1.5448
1.63667
1.69454
1.72885
1.75027
1.76134
1.75241
1.68904
1.48276
0.925751
25.0664
24.1994
22.0738
18.5104
13.1918
5.49438
-5.6356
-21.9382
-46.3644
-84.0732
-136.921
-203.771
-264.501
-271.865
-218.366
-150.961
-100.571
-68.6136
-47.9556
-33.5758
-23.3701
-16.6793
-11.9946
-8.60818
-6.24552
-4.56902
-3.2877
-2.27156
-1.46817
-0.833711
-0.325244
0.0881084
0.426497
0.698469
0.911714
1.06374
1.13929
1.10308
0.894733
0.43888
22.2391
21.1671
18.5426
14.1651
7.69289
-1.50956
-14.4003
-32.2903
-56.8305
-89.7056
-130.907
-175.758
-210.951
-217.41
-189.254
-144.466
-104.037
-74.7609
-54.2655
-39.3052
-28.1584
-19.9814
-13.9013
-9.43008
-6.1802
-3.81494
-2.06658
-0.762253
0.205257
0.9151
1.4316
1.80303
2.06255
2.22976
2.31545
2.31903
2.2253
1.99849
1.57523
0.839755
20.7628
19.5943
16.7161
11.9317
4.90336
-4.97924
-18.5665
-36.8653
-60.8345
-90.8456
-125.476
-159.837
-184.945
-190.361
-172.192
-139.134
-104.973
-77.4548
-57.0636
-41.8404
-30.3065
-21.6638
-15.2896
-10.6387
-7.26518
-4.82246
-3.03885
-1.7171
-0.727651
0.0163646
0.577484
1.00071
1.31588
1.53885
1.67524
1.72137
1.66176
1.46453
1.08721
0.488161
58.4309
59.5226
62.1845
66.4637
72.4017
80.1251
89.7425
101.168
113.93
126.879
137.889
143.728
141.285
129.784
111.957
92.5739
74.8447
59.7669
47.3465
37.3451
29.4421
23.2422
18.3998
14.6733
11.8282
9.62845
7.90978
6.57484
5.54975
4.76415
4.15854
3.68902
3.32127
3.02512
2.7702
2.52446
2.25177
1.90724
1.43485
0.769319
57.3358
58.4001
61.0011
65.2094
71.1164
78.9341
88.9129
101.188
115.572
131.18
145.832
154.824
152.398
137.531
115.401
93.1779
73.9877
58.1724
45.4581
35.4705
27.7617
21.654
16.8825
13.384
10.821
8.84232
7.27806
6.05188
5.09985
4.35898
3.77888
3.32341
2.96416
2.67446
2.42888
2.20033
1.95591
1.65127
1.228
0.624795
55.1802
56.178
58.6306
62.6486
68.4107
76.2852
86.799
100.56
118.087
139.269
161.364
177.48
175.482
152.776
122.325
95.166
73.0674
55.6913
42.3852
32.4368
25.2692
19.3655
14.5617
11.2446
8.89401
7.09317
5.71773
4.69006
3.91818
3.33089
2.88471
2.54907
2.29903
2.11144
1.96853
1.84993
1.72906
1.55954
1.25792
0.668915
52.0325
52.9089
55.0829
58.7058
64.0519
71.6722
82.4625
97.787
119.662
150.933
183.573
218.803
221.327
183.567
138.86
105.292
77.6073
56.7662
41.6749
30.8103
18.9307
13.4765
10.6552
8.95506
7.17102
5.48958
4.16196
3.15831
2.38134
1.77421
1.30554
0.954493
0.698415
0.516246
0.400744
0.342609
0.329367
0.324645
0.234908
-0.178184
48.022
48.7057
50.4281
53.3566
57.8182
64.4757
74.4994
89.9061
114.195
154.746
221.277
296.27
313.555
212.243
142.206
103.229
68.983
46.1634
31.3105
21.6389
14.4589
-2.83786
-1.20446
1.19573
1.43477
1.01576
0.622558
0.271513
-0.0658384
-0.364967
-0.610793
-0.792554
-0.91832
-0.991487
-1.00145
-0.935289
-0.7735
-0.511933
-0.229416
-0.358853
43.3629
43.7756
44.8553
46.7386
49.7137
54.3772
61.845
74.2532
95.9334
146.089
232.808
413.31
560.179
192.263
147.404
102.661
57.7143
32.9921
18.8529
10.0268
1.00383
-1.25182
0.520673
-0.345595
-1.7105
-2.53739
-3.02755
-3.41692
-3.74539
-4.00193
-4.18554
-4.31681
-4.38289
-4.38752
-4.31387
-4.1289
-3.77227
-3.13432
-2.02242
-0.139149
38.3279
38.4319
38.7138
39.2477
40.1817
41.8037
44.6364
49.6573
58.7239
95.8178
169.646
401.262
1869.48
203.677
78.3604
24.6591
8.23791
0.312729
-9.35156
-18.6261
12.6661
10.6008
4.07117
0.292799
-1.444
-2.43909
-3.16615
-3.71287
-4.10728
-4.38288
-4.56122
-4.6654
-4.6996
-4.63977
-4.45642
-4.08859
-3.42906
-2.29016
-0.384337
33.3133
33.0739
32.4906
31.5468
30.1997
28.3264
25.6539
21.5399
14.311
17.7812
6.80989
-129.195
-899.377
-960.136
-275.877
-84.6655
-39.9609
-25.0149
-18.3747
-12.9105
-3.02064
-6.39716
-6.25643
-5.93325
-5.42619
-4.71471
-4.01483
-3.44216
-2.99083
-2.6275
-2.32726
-2.06199
-1.84075
-1.63843
-1.4219
-1.16293
-0.824876
-0.371074
0.19124
0.621401
28.7116
28.1423
26.745
24.4206
20.9709
15.9721
8.64675
-2.45987
-20.1965
-40.1958
-102.24
-227.583
-414.759
-440.05
-275.454
-148.596
-85.6524
-53.644
-35.854
-24.2762
-15.4934
-10.8361
-6.77865
-3.76692
-2.1346
-1.27955
-0.728903
-0.35196
-0.11319
0.0283525
0.1129
0.167141
0.202407
0.233516
0.276733
0.343113
0.437768
0.549958
0.614464
0.443341
24.8939
24.0506
21.9906
18.5553
13.4656
6.16821
-4.26863
-19.3814
-41.7859
-76.0869
-124.014
-184.72
-240.071
-246.96
-198.475
-137.588
-92.407
-63.8669
-45.3743
-32.4544
-23.3219
-17.4052
-12.3917
-8.72382
-6.39383
-4.85664
-3.69674
-2.77158
-2.03978
-1.46257
-0.998987
-0.61893
-0.305054
-0.0455332
0.172065
0.350184
0.482466
0.54588
0.487816
0.227918
22.1712
21.1396
18.6148
14.4231
8.26524
-0.422008
-12.4854
-29.0754
-51.6403
-81.6586
-119.102
-159.783
-191.775
-197.755
-172.353
-131.966
-95.628
-69.3468
-50.8936
-37.3663
-27.2637
-19.803
-14.0029
-9.63853
-6.49756
-4.25138
-2.60689
-1.38588
-0.485085
0.171441
0.646486
0.98766
1.22754
1.38695
1.48006
1.5091
1.46375
1.31712
1.01823
0.486119
20.7573
19.6294
16.8683
12.2982
5.62426
-3.69522
-16.4106
-33.3962
-55.4762
-82.9415
-114.474
-145.668
-168.455
-173.444
-157.115
-127.366
-96.6163
-71.8234
-53.4019
-39.5943
-29.0908
-21.1705
-15.2272
-10.7779
-7.50799
-5.14686
-3.43491
-2.17129
-1.22733
-0.519514
0.0124625
0.412964
0.711821
0.926898
1.06683
1.13014
1.10445
0.965465
0.680227
0.229927
56.7506
57.7166
60.0717
63.8441
69.0478
75.7645
84.0515
93.7872
104.513
115.2
124.015
128.222
125.362
114.806
98.9702
81.9198
66.3523
53.1014
42.1691
33.3495
26.3725
20.8968
16.5846
13.1969
10.5687
8.53052
6.9409
5.70692
4.76093
4.0333
3.47189
3.03844
2.70004
2.43461
2.21228
2.01032
1.79701
1.53841
1.1899
0.688952
55.6927
56.631
58.9241
62.6198
67.7744
74.5413
83.0952
93.4972
105.524
118.366
130.2
136.78
133.954
120.636
101.302
81.9936
65.2825
51.4745
40.3606
31.6331
24.9387
19.6492
15.4451
12.2092
9.75706
7.84849
6.3371
5.15099
4.24234
3.53869
2.99171
2.56689
2.23942
1.98098
1.77556
1.59936
1.43
1.23352
0.963395
0.551789
53.6138
54.4865
56.6329
60.1343
65.1216
71.8784
80.8089
92.366
106.906
124.242
142.01
154.68
151.923
132.062
106.009
82.748
63.7124
48.7209
37.2504
28.7878
23.1213
18.245
13.6645
10.31
8.01586
6.31739
5.01069
4.01377
3.25196
2.67745
2.2423
1.91355
1.6718
1.49536
1.37349
1.29375
1.24453
1.19693
1.08468
0.727053
50.5853
51.3416
53.221
56.3396
60.9092
67.3669
76.4227
89.1524
107.144
132.646
161.994
191.285
192.314
159.025
120.762
91.7229
67.503
49.452
36.4565
27.3443
18.9677
16.5194
11.4216
7.59982
5.05668
3.22064
1.87883
0.922781
0.242476
-0.248674
-0.61039
-0.869216
-1.04021
-1.14355
-1.17637
-1.13007
-0.993327
-0.762559
-0.472964
-0.325839
46.7355
47.3143
48.7716
51.2397
54.9781
60.5199
68.8045
81.4549
101.307
137.112
193.304
257.435
271.025
181.523
124.247
89.3553
58.5827
38.7626
26.1266
18.4048
15.7565
7.85454
5.51648
3.73208
1.99971
0.575334
-0.505042
-1.33919
-1.96237
-2.42539
-2.77657
-3.02337
-3.18477
-3.27914
-3.28905
-3.17594
-2.89001
-2.35026
-1.50111
-0.660268
42.2729
42.6069
43.4736
44.9841
47.3693
51.1091
57.1018
67.0901
84.642
128.866
206.194
369.119
502.835
159.515
142.779
91.5347
47.7371
25.3453
13.29
6.00052
-3.16259
-31.1393
-28.3123
-26.2632
-25.202
-24.0725
-22.9577
-22.0173
-21.2622
-20.6177
-20.0296
-19.4948
-18.9756
-18.4315
-17.8271
-17.1004
-16.1281
-14.6539
-12.0971
-6.96833
37.4808
37.5189
37.659
37.9502
38.506
39.5481
41.4917
45.1311
52.029
84.852
152.266
372.241
1796.85
250.796
69.5917
14.9306
-1.01917
-7.7464
-13.0105
-17.1537
-1.95725
-4.68831
-9.15419
-11.4732
-12.4388
-12.9312
-13.2583
-13.4769
-13.5822
-13.5859
-13.5252
-13.3718
-13.1343
-12.794
-12.2905
-11.5086
-10.2071
-7.91382
-3.84145
32.6932
32.4321
31.7899
30.7512
29.2725
27.238
24.4055
20.2324
13.3616
16.4291
7.68466
-112.48
-817.425
-855.174
-238.377
-76.0453
-40.3081
-28.3253
-22.5153
-17.2244
-11.3222
-21.1112
-17.4452
-13.5573
-11.3031
-9.79157
-8.65388
-7.81748
-7.21461
-6.77068
-6.42928
-6.14384
-5.90001
-5.66373
-5.39367
-5.03731
-4.52007
-3.72207
-2.49902
-0.855388
28.3203
27.7572
26.3776
24.0977
20.7467
15.9631
9.09037
-1.07664
-16.8827
-34.5606
-88.3926
-197.374
-361.352
-381.799
-238.106
-130.023
-77.0965
-50.0467
-34.7913
-25.0171
-19.183
-18.3223
-12.2786
-7.30193
-4.78025
-3.50497
-2.6902
-2.13043
-1.76529
-1.5343
-1.38244
-1.27527
-1.1933
-1.10976
-1.00395
-0.85227
-0.626658
-0.300999
0.104945
0.369884
24.6902
23.8767
21.8989
18.619
13.8063
6.99247
-2.60241
-16.2507
-36.1083
-65.9569
-107.13
-158.896
-205.854
-211.968
-171.437
-120.37
-82.302
-58.0272
-42.1249
-31.016
-23.4457
-19.0846
-14.1392
-10.1358
-7.55066
-5.83301
-4.53321
-3.50263
-2.69622
-2.06901
-1.57441
-1.17595
-0.853644
-0.58387
-0.351041
-0.143097
0.0459995
0.209137
0.303727
0.205871
22.1006
21.1166
18.717
14.7547
8.9837
0.93044
-10.111
-25.0846
-45.1567
-71.4862
-103.934
-138.848
-166.254
-171.49
-150.11
-116.015
-85.1468
-62.5867
-46.5715
-34.7591
-25.9692
-19.5556
-14.4208
-10.3138
-7.23147
-4.97984
-3.30973
-2.05503
-1.11758
-0.424716
0.0848696
0.458566
0.729663
0.922677
1.05368
1.12982
1.14754
1.08699
0.900061
0.476641
20.7576
19.6846
17.0686
12.7629
6.52506
-2.09852
-13.7301
-29.0791
-48.7839
-73.0027
-100.515
-127.51
-147.145
-151.512
-137.681
-112.447
-86.1726
-64.7874
-48.7416
-36.6247
-27.3733
-20.3894
-15.0968
-11.0005
-7.88383
-5.57736
-3.87373
-2.59505
-1.62452
-0.88617
-0.324205
0.103918
0.428309
0.668925
0.836652
0.934022
0.9529
0.872766
0.659368
0.261846
54.8646
55.6913
57.7028
60.9074
65.2899
70.8815
77.6794
85.5169
93.9399
102.039
108.305
110.681
107.325
97.9048
84.4493
70.1344
57.0622
45.8846
36.5931
29.0119
22.9187
18.0787
14.2802
11.3226
9.02298
7.21907
5.79563
4.68116
3.82877
3.16444
2.64722
2.25009
1.92861
1.69109
1.4882
1.31889
1.14231
0.943343
0.699572
0.406817
53.8489
54.648
56.5964
59.7179
64.0309
69.6211
76.5736
84.8548
94.1733
103.744
111.954
115.996
112.592
101.165
85.2641
69.4588
55.6803
44.1775
34.802
27.2845
21.2993
16.6005
12.9379
10.1357
7.98197
6.28048
4.91556
3.81938
3.02682
2.39481
1.89468
1.50041
1.20584
0.957514
0.776081
0.628125
0.509095
0.394718
0.270202
0.144418
51.8562
52.5921
54.3959
57.3186
61.4373
66.9368
74.0724
83.0947
94.1194
106.784
119.208
126.998
123.333
107.072
86.4664
68.1338
52.9945
40.8447
31.3349
23.9754
18.132
13.9088
10.4253
7.77846
5.81415
4.30192
3.14562
2.26142
1.52986
0.999293
0.609509
0.321357
0.118351
-0.0131957
-0.0914416
-0.118
-0.0938755
-0.0231735
0.0745801
0.155468
48.961
49.5884
51.1385
53.6913
57.3872
62.5268
69.5873
79.2569
92.4742
110.355
134.316
154.65
153.623
127.188
97.2523
74.1334
54.7626
40.2436
29.6131
21.8722
11.3402
8.685
5.73307
3.18645
1.22944
-0.324994
-1.55671
-2.45211
-3.08459
-3.51613
-3.81715
-4.01516
-4.12502
-4.16547
-4.13069
-3.99895
-3.7487
-3.33092
-2.66996
-1.6
45.2961
45.7581
46.9197
48.8708
51.7903
56.0515
62.292
71.5851
85.7292
114.178
153.833
198.313
204.036
134.964
94.051
66.8184
42.7076
27.2408
17.2805
11.1627
9.65757
-2.05677
-3.49268
-4.82677
-6.23357
-7.1896
-8.00121
-8.75177
-9.18505
-9.39146
-9.49447
-9.53308
-9.48921
-9.36692
-9.18895
-8.88072
-8.36878
-7.50786
-6.06256
-3.70463
41.0605
41.3017
41.9306
43.0215
44.7339
47.3946
51.6068
58.512
70.3633
104.435
163.131
285.284
383.766
98.2045
108.501
54.5478
19.076
1.86355
-7.13767
-11.9263
-10.1833
-23.8688
-26.0326
-30.5152
-32.1742
-32.3341
-31.8124
-30.9783
-30.1868
-29.4363
-28.6675
-27.8645
-27.0726
-26.2773
-25.3992
-24.3732
-23.0526
-21.0886
-17.6674
-10.7843
36.5259
36.503
36.4854
36.5016
36.6193
36.9718
37.8044
39.5771
43.1739
67.874
119.258
300.047
1616.31
250.179
-18.5823
-59.9182
-67.6019
-68.5639
-66.8024
-62.2263
-36.138
-35.3675
-37.3109
-37.4268
-36.5045
-35.3657
-34.2604
-33.2455
-32.2782
-31.3259
-30.4088
-29.4966
-28.5425
-27.5516
-26.4247
-25.0011
-22.8998
-19.2306
-11.6554
32.02
31.7194
31.0105
29.8637
28.2285
25.9873
22.9052
18.503
11.7017
13.1051
5.20127
-88.1366
-653.821
-651.63
-192.245
-78.9181
-51.9514
-41.1743
-35.1543
-29.5877
-26.4387
-29.819
-26.1809
-22.3086
-19.9417
-18.2793
-17.0101
-16.0326
-15.2638
-14.6383
-14.1045
-13.6305
-13.2048
-12.7505
-12.2557
-11.6659
-10.8781
-9.70127
-7.77529
-4.36457
27.8906
27.3326
25.9742
23.7427
20.4973
15.9382
9.5358
0.368015
-13.2058
-28.2636
-71.3132
-154.626
-277.766
-294.017
-188.332
-108.071
-67.4837
-45.7536
-33.0541
-24.9376
-22.4253
-18.0074
-14.5856
-11.5666
-9.67016
-8.4252
-7.4831
-6.73726
-6.14905
-5.68509
-5.31054
-4.99737
-4.73116
-4.47977
-4.21909
-3.91905
-3.53433
-3.00077
-2.23277
-1.13362
24.4736
23.6987
21.8059
18.7004
14.1947
7.91354
-0.753455
-12.7692
-29.7076
-54.2877
-87.1646
-127.085
-162.234
-167.606
-138.035
-99.5983
-69.947
-50.3178
-37.0309
-27.5265
-20.9015
-17.2584
-13.8985
-11.0165
-8.84822
-7.23367
-5.97291
-4.96497
-4.16018
-3.51674
-2.99673
-2.5686
-2.21332
-1.90628
-1.63043
-1.37067
-1.11575
-0.857567
-0.599532
-0.355873
22.0347
21.1033
18.8465
15.1426
9.80468
2.45927
-7.44083
-20.5999
-37.8356
-59.8751
-86.3672
-114.211
-135.814
-139.993
-123.765
-97.5149
-73.0561
-54.6169
-41.1785
-31.0796
-23.4498
-17.8841
-13.6248
-10.2552
-7.66294
-5.71083
-4.23263
-3.10173
-2.23389
-1.56887
-1.05859
-0.66625
-0.364747
-0.133242
0.0423587
0.169404
0.24612
0.260344
0.187895
0.00368842
20.7715
19.7621
17.3108
13.3029
7.55482
-0.288348
-10.7053
-24.2157
-41.2337
-61.7382
-84.588
-106.629
-122.46
-126.017
-115.236
-95.2661
-74.1551
-56.565
-43.0625
-32.6924
-24.6741
-18.5792
-13.9933
-10.4864
-7.80389
-5.77303
-4.23748
-3.06601
-2.16515
-1.47037
-0.934053
-0.519144
-0.198897
0.0444446
0.221373
0.335237
0.379072
0.33623
0.187446
-0.0610963
52.903
53.5848
55.2428
57.8637
61.4053
65.8506
71.1401
77.0682
83.1929
88.7341
92.5167
93.0988
89.3069
81.1131
70.1043
58.5642
48.0104
38.9139
31.2599
24.9218
19.7478
15.5933
12.3367
9.85448
7.9423
6.42562
5.21462
4.2621
3.52652
2.95616
2.51359
2.17107
1.90307
1.69336
1.51975
1.36672
1.21034
1.02882
0.79609
0.486627
51.9323
52.5867
54.1817
56.7141
60.1665
64.5605
69.8944
76.0463
82.6666
89.0238
93.8203
95.1176
91.0488
81.5529
69.2024
57.0083
46.2752
37.1583
29.5723
23.3535
18.288
14.2133
11.0701
8.78767
7.06967
5.70703
4.61712
3.75433
3.0857
2.5569
2.13671
1.80359
1.54186
1.33147
1.16403
1.02564
0.901962
0.772173
0.609144
0.379677
50.0318
50.6243
52.0788
54.4099
57.6438
61.8695
67.1955
73.6753
81.1893
89.2126
96.3123
99.4107
94.4002
81.359
66.1561
52.9441
41.9316
32.7149
25.1658
19.0441
14.0272
10.1007
7.71829
6.06486
4.64466
3.47053
2.58673
1.94357
1.46916
1.12871
0.884805
0.711961
0.596023
0.523604
0.486578
0.483334
0.511688
0.559409
0.590447
0.494491
47.2793
47.7689
48.9846
50.9623
53.7714
57.5788
62.631
69.2331
77.6975
88.1845
98.8956
105.979
98.9622
78.6281
59.9974
46.4839
35.4863
26.6905
19.748
13.9014
7.79697
1.69223
1.95331
2.46244
1.91797
1.06576
0.315105
-0.275624
-0.730436
-1.07648
-1.339
-1.5287
-1.6503
-1.71166
-1.70914
-1.62713
-1.44827
-1.14782
-0.717467
-0.220722
43.8074
44.1476
45.0076
46.4371
48.5266
51.4919
55.6654
61.5434
69.7672
89.303
109.331
128.378
121.54
80.3133
56.1914
42.1281
27.4651
17.1584
10.3011
5.34634
0.190998
-13.8227
-11.081
-8.16584
-6.89466
-6.2242
-5.77313
-5.46412
-5.22539
-5.04046
-4.90392
-4.79563
-4.69641
-4.59153
-4.44658
-4.21405
-3.8312
-3.19958
-2.2267
-1.0062
39.8107
39.9554
40.3419
41.0095
42.0409
43.6086
46.0095
49.7392
55.5754
76.891
102.915
145.071
163.106
26.0991
20.8074
3.72403
-5.2787
-9.13587
-12.0646
-14.5604
-21.1519
-13.6833
-15.1425
-17.2783
-17.992
-17.9874
-17.7094
-17.3184
-16.9017
-16.4696
-16.017
-15.5365
-15.0612
-14.589
-14.0596
-13.4122
-12.5363
-11.2007
-8.97724
-5.18205
35.547
35.4613
35.2837
35.0223
34.6982
34.3526
34.0447
33.854
33.8354
47.7932
59.2349
129.086
169.306
-698.785
-128.18
-87.0255
-61.6139
-56.6451
-53.6527
-51.7513
-67.9998
-40.1979
-38.1658
-36.0976
-34.1589
-32.2608
-30.557
-29.0817
-27.7979
-26.6508
-25.6013
-24.6336
-23.7311
-22.837
-21.9168
-20.9043
-19.6807
-17.9606
-15.1202
-9.57784
31.323
30.9944
30.2199
28.9653
27.1764
24.7266
21.3723
16.6544
9.66419
8.40601
-12.6587
-79.1308
-302.051
-258.006
-108.24
-58.3084
-35.648
-25.8212
-20.771
-16.6752
-8.76085
6.19079
2.47751
-1.51285
-3.23075
-4.07672
-4.63762
-5.02121
-5.26533
-5.40789
-5.47808
-5.50193
-5.47769
-5.38376
-5.20655
-4.92343
-4.46783
-3.71471
-2.50302
-0.876609
27.4615
26.9069
25.573
23.3962
20.2648
15.9352
9.98356
1.67519
-10.362
-28.938
-52.0704
-105.479
-175.369
-187.953
-129.847
-81.1121
-53.2128
-36.6465
-26.4621
-19.1508
-9.55992
-1.09774
-2.42491
-3.9896
-4.03995
-3.59616
-3.15173
-2.76168
-2.41905
-2.12842
-1.88877
-1.69049
-1.52619
-1.38289
-1.22976
-1.04487
-0.803032
-0.471432
-0.0608157
0.238816
24.2637
23.5231
21.7309
18.8094
14.6236
8.89024
1.16445
-9.22094
-23.2327
-42.1194
-66.4392
-93.9319
-116.978
-121.281
-103.336
-77.809
-56.5257
-41.4806
-30.7679
-22.5392
-15.5724
-10.9195
-8.36897
-6.51595
-4.8268
-3.43035
-2.37955
-1.59836
-1.00865
-0.561419
-0.222002
0.0375226
0.235109
0.389703
0.521243
0.638921
0.744694
0.825888
0.824874
0.559958
21.9847
21.1146
19.0043
15.5722
10.6866
4.07225
-4.65987
-15.9742
-30.3282
-47.9442
-68.2088
-88.808
-104.238
-107.567
-96.8411
-78.5008
-60.5001
-46.1608
-35.2605
-26.7585
-19.9706
-14.7278
-10.7316
-7.79347
-5.57924
-3.881
-2.58395
-1.59341
-0.833064
-0.248455
0.199043
0.538969
0.793432
0.979529
1.10897
1.18651
1.20549
1.142
0.941645
0.48968
20.8044
19.8642
17.5877
13.8944
8.65921
1.62352
-7.54839
-19.1835
-33.4685
-50.1869
-68.2663
-85.26
-97.2085
-99.997
-92.3511
-77.7453
-61.756
-47.9122
-36.914
-28.2335
-21.3296
-15.9086
-11.7548
-8.62704
-6.239
-4.38165
-2.93659
-1.81948
-0.958771
-0.296942
0.20953
0.593593
0.88011
1.08617
1.22146
1.28847
1.27721
1.16308
0.899542
0.406632
50.9996
51.5421
52.8613
54.9298
57.6789
61.0547
64.9551
69.1555
73.2489
76.5992
78.3496
77.5699
73.6302
66.7102
57.9637
48.9172
40.5927
33.334
27.1499
21.973
17.7193
14.3012
11.6269
9.56821
7.94682
6.62973
5.5569
4.69551
4.01244
3.47098
3.03987
2.6946
2.41442
2.18079
1.97618
1.78242
1.57703
1.33311
1.01862
0.597193
50.0738
50.5897
51.8463
53.8254
56.4704
59.7556
63.613
67.8641
72.1451
75.8257
77.9551
77.3587
73.13
65.5215
56.2013
47.0069
38.7892
31.6753
25.6453
20.6425
16.567
13.3325
10.8771
9.02708
7.55771
6.34913
5.36001
4.55845
3.91017
3.38342
2.95265
2.59869
2.30595
2.05941
1.84508
1.64957
1.45351
1.23038
0.942655
0.54374
48.2646
48.7216
49.8418
51.6201
54.0327
57.0919
60.7949
65.0564
69.6152
73.8872
76.7541
76.4841
71.3706
61.9767
51.5398
42.3882
34.6077
27.8283
22.0725
17.3427
13.546
10.6983
8.86168
7.42839
6.10303
4.95511
4.05005
3.35904
2.82772
2.41608
2.09794
1.85303
1.66594
1.52368
1.41542
1.3324
1.26094
1.1748
1.01947
0.67718
45.6529
46.0148
46.9128
48.3539
50.3504
52.9574
56.2478
60.2575
64.9006
69.7623
73.6326
73.9073
67.1227
54.5214