/*--------------------------------*- C++ -*----------------------------------*\
| =========                 |                                                 |
| \\      /  F ield         | OpenFOAM: The Open Source CFD Toolbox           |
|  \\    /   O peration     | Version:  2306                                  |
|   \\  /    A nd           | Website:  www.openfoam.com                      |
|    \\/     M anipulation  |                                                 |
\*---------------------------------------------------------------------------*/
FoamFile
{
    version     2.0;
    format      ascii;
    arch        "LSB;label=32;scalar=64";
    class       surfaceScalarField;
    location    "1.2";
    object      phi;
}
// * * * * * * * * * * * * * * * * * * * * * * * * * * * * * * * * * * * * * //

dimensions      [0 3 -1 0 0 0 0];

oriented        oriented;

internalField   nonuniform List<scalar> 
338621
(
24.9948
0.00255622
0.00126999
24.987
0.00518163
0.00267933
24.9745
0.00807285
0.00431389
24.9571
0.0111034
0.00629762
24.9337
0.0143891
0.00892612
24.9008
0.0203444
0.0123508
24.8542
0.0297567
0.0166747
24.7915
0.0402428
0.0221995
24.7301
0.0318908
0.0291558
24.6876
0.00450676
0.0374666
24.6601
-0.0200675
0.046994
24.5869
0.0152724
0.057326
24.6156
-0.0976165
0.0681937
24.7455
-0.20917
0.0785892
24.7862
-0.129108
0.0877909
24.8173
-0.126806
0.0952861
24.845
-0.128911
0.100982
24.8674
-0.127824
0.105286
24.8863
-0.127343
0.108303
24.9127
-0.136838
0.110409
24.9427
-0.141571
0.111643
24.9658
-0.135594
0.112468
24.9839
-0.131127
0.113057
24.999
-0.128468
0.113374
25.012
-0.12663
0.113655
25.023
-0.125
0.11397
25.0326
-0.123911
0.114286
25.0409
-0.122819
0.114616
25.0477
-0.121892
0.115059
25.0535
-0.121398
0.115578
25.0585
-0.121093
0.116135
25.0628
-0.12099
0.116677
25.0665
-0.12101
0.11728
25.0698
-0.121138
0.117888
25.0727
-0.121369
0.118422
25.0758
-0.121985
0.118877
25.0791
-0.122458
0.11918
25.0827
-0.122955
0.119382
25.0868
-0.123505
0.119419
-0.124362
0.119014
24.9948
0.00507828
0.00124609
24.9869
0.0104808
0.00259452
24.9741
0.0166506
0.00420534
24.9565
0.0224369
0.00616374
24.9331
0.0289744
0.00876026
24.9035
0.0377413
0.0120688
24.8679
0.0487423
0.0164326
24.8224
0.0634287
0.0220366
24.7584
0.0664803
0.0291598
24.6844
0.040199
0.0378593
24.6424
-0.0266804
0.0481754
24.6298
-0.0319834
0.0592776
24.6684
-0.208659
0.0718116
24.7517
-0.376553
0.0835557
24.8307
-0.302167
0.0935674
24.8977
-0.295542
0.101473
24.9487
-0.287491
0.107361
24.99
-0.280804
0.111658
25.0344
-0.286418
0.114662
25.0681
-0.287144
0.116603
25.0885
-0.279804
0.117852
25.1033
-0.269009
0.118609
25.1138
-0.260782
0.119194
25.1224
-0.256553
0.119546
25.1291
-0.253181
0.119821
25.1346
-0.250542
0.120064
25.1384
-0.248114
0.120372
25.1416
-0.246688
0.120721
25.1442
-0.245683
0.121156
25.1459
-0.244782
0.121664
25.1471
-0.244466
0.122223
25.1475
-0.244222
0.122812
25.1479
-0.244777
0.123429
25.148
-0.245318
0.124031
25.1481
-0.246079
0.124576
25.1484
-0.247285
0.125077
25.1489
-0.248399
0.125408
25.1499
-0.249627
0.125655
25.1519
-0.251157
0.125696
-0.252084
0.12535
24.9952
0.00723724
0.00118696
24.9873
0.015834
0.00246853
24.9752
0.0247769
0.00396674
24.9571
0.0346242
0.00590209
24.9326
0.0449675
0.00840028
24.9014
0.0572055
0.0116517
24.8616
0.0723615
0.0160459
24.8127
0.0903535
0.0217675
24.7442
0.105424
0.029293
24.6468
0.098376
0.0389294
24.5712
0.00528528
0.0507837
-0.00621371
0.00488308
-0.00605048
24.6686
-0.0387952
0.064912
-0.0585052
-0.0387534
-0.0586759
24.5608
-0.0110596
0.0785917
-0.0952909
0.0208096
-0.0942908
24.7322
-0.182088
0.0921746
-0.123842
-0.21238
-0.122234
24.8238
-0.128998
0.102836
-0.121766
-0.126858
-0.119281
24.8831
-0.118556
0.110917
-0.116846
-0.115865
-0.114557
24.936
-0.115256
0.116838
-0.115672
-0.113178
-0.113033
25.0009
-0.11823
0.121071
-0.117281
-0.116071
-0.115166
25.0433
-0.114895
0.123936
-0.113499
-0.112784
-0.111455
25.0686
-0.111144
0.125626
-0.110041
-0.108984
-0.107823
25.087
-0.424842
0.126695
25.1015
-0.410795
0.127251
25.111
-0.397898
0.127643
25.1186
-0.392108
0.127965
25.125
-0.387803
0.128274
25.1299
-0.383946
0.128537
25.1333
-0.380323
0.128795
25.1359
-0.378446
0.129098
25.1372
-0.376421
0.129468
25.1382
-0.375688
0.129915
25.1383
-0.374955
0.130426
25.138
-0.374952
0.130989
25.1371
-0.375407
0.131532
25.1361
-0.376496
0.132168
25.1348
-0.377425
0.132693
25.1335
-0.379149
0.133195
25.1326
-0.381117
0.13353
25.1323
-0.383061
0.133763
25.1324
-0.385021
0.133788
-0.386776
0.133467
24.9955
0.00963494
0.00109558
24.9886
0.0204101
0.00227777
24.9768
0.0329958
0.00363657
24.9598
0.0460684
0.00546419
24.9352
0.0617235
0.00778908
24.9008
0.0805828
0.0109062
24.8555
0.102442
0.0151652
24.7977
0.127117
0.020889
24.7315
0.142705
0.0286963
6.14199
0.036752
0.0392239
0.0538923
0.0375825
0.0533431
6.1641
6.14099
6.16195
6.1245
0.0170214
0.00573783
-6.11151
6.09944
-0.0343394
0.00759534
-6.10338
6.12481
-0.0420989
0.00958732
-6.11696
6.14367
-0.220524
0.0117043
-6.16221
6.17625
-0.156374
0.0133267
-6.18934
6.19985
-0.143511
0.0144409
-6.21104
6.22523
-0.144769
0.015337
-6.23711
6.24423
-0.141366
0.0160209
-6.24998
6.25511
-0.136501
0.0164816
-6.25947
6.2634
-0.131875
0.0167978
25.0963
-0.145904
0.138663
-0.146804
-0.143923
-0.145489
-6.26693
-6.27152
-6.26745
-6.27172
25.1036
-0.557388
0.139262
25.1077
-0.540799
0.138778
25.112
-0.534575
0.138251
25.1142
-0.528067
0.138053
25.1147
-0.52249
0.138072
25.1146
-0.51852
0.138262
25.113
-0.515469
0.138608
25.1102
-0.512647
0.139081
25.1061
-0.51127
0.13965
25.1012
-0.510302
0.140274
25.0952
-0.509925
0.140921
25.0883
-0.51003
0.141514
25.081
-0.511328
0.142173
25.0734
-0.512495
0.142657
25.0655
-0.514267
0.143063
25.0576
-0.516518
0.143237
25.0501
-0.518705
0.143182
25.044
-0.521811
0.142883
-0.523733
0.142193
24.9972
0.0103059
0.000971641
24.9912
0.0243969
0.00201746
24.9813
0.0396017
0.00321016
24.9659
0.0567017
0.0048286
24.943
0.0776543
0.00688793
24.9097
0.10418
0.00966363
24.8599
0.138614
0.0134554
24.7861
0.1821
0.0187328
6.1716
0.231313
0.0259867
6.16435
6.17119
6.1643
6.15563
0.0488159
0.00390059
6.13045
0.0055092
-6.15824
0.0199689
0.011802
0.0115433
0.0202206
-0.0412526
-6.07779
6.04368
0.00757549
-0.00231219
0.00409072
0.00357398
-0.00200436
0.023184
-6.04316
6.0613
0.0100548
0.0291201
-0.0401684
-0.0404644
-0.0190914
0.0424102
-6.11342
6.1384
0.0128719
-0.0519521
-0.066689
-0.104629
-0.0524075
0.23784
-6.17052
6.18216
0.0143251
-0.050601
-0.054574
-0.0538187
-0.0510897
0.184118
-6.19352
6.20672
0.0152671
-0.051239
-0.0504312
-0.0502971
-0.0512973
0.174809
-6.22016
6.23194
0.0161234
-0.0498521
-0.0495459
-0.0496224
-0.0497486
0.170886
-6.2416
6.24888
0.0168545
-0.0474829
-0.0470596
-0.0472412
-0.0472936
0.164963
-6.25527
6.25984
0.0174543
-0.0451255
-0.044942
-0.0451931
-0.0448784
0.158125
-6.26389
6.26596
0.0179738
-0.043045
-0.043038
-0.0433367
-0.0427487
0.152129
-6.26896
6.27083
-0.166561
0.0187928
25.0401
-0.670804
0.144618
-6.27078
-6.26395
-6.27149
-6.26512
25.0164
-0.659073
0.141973
24.9913
-0.648219
0.138768
24.966
-0.638612
0.135876
24.9417
-0.631675
0.133495
24.918
-0.626472
0.131681
24.8945
-0.622406
0.130373
24.8719
-0.61945
0.12946
24.8491
-0.617274
0.128806
24.8265
-0.616023
0.128299
24.8043
-0.615544
0.127839
24.7825
-0.615591
0.127319
24.7607
-0.616344
0.126789
24.7399
-0.617697
0.126083
24.7198
-0.619355
0.125198
24.7007
-0.621506
0.124051
24.6834
-0.624018
0.122584
24.6681
-0.627338
0.120806
-0.632214
0.118696
24.9999
0.00894384
0.000816523
24.9965
0.0260685
0.00168756
24.9889
0.0444684
0.00268871
24.9772
0.0644785
0.00396883
24.9596
0.0895562
0.00565638
24.9326
0.123264
0.00787283
24.8896
0.170675
0.0108335
24.8176
0.239121
0.014963
6.17112
0.344927
0.0205067
6.17066
6.1711
6.17049
-0.0647422
6.14561
0.0871694
0.00307417
-0.019536
-1.52776
1.52263
0.02408
0.000580913
-0.0192958
-1.5045
1.4924
0.0306393
0.000753866
-1.46893
0.0522457
1.47883
-0.0633318
0.00118971
-1.53018
0.0844798
1.53879
-0.0944759
0.00138505
-1.53676
0.0612358
-0.0651444
0.00195993
1.53871
-1.54768
0.0593903
-0.063736
0.00187884
1.55014
0.0570734
-1.55575
1.5572
-0.0602985
0.00177228
0.0531195
-1.56022
1.56081
-0.0553905
0.00168108
0.0502284
-1.5616
1.56172
-0.0519735
0.00161752
0.0476079
-1.5612
1.56082
-0.0488135
0.00158103
-1.55393
0.183398
6.15346
-0.178366
0.0197832
-1.53902
-1.55219
-1.53314
23.8145
-0.766684
0.0721658
-6.09495
-5.80656
-6.09917
-5.79015
23.8308
-0.741996
0.0666807
23.8446
-0.725222
0.063127
23.8582
-0.712429
0.0602728
23.8712
-0.702821
0.058106
23.8837
-0.695489
0.0565475
23.8958
-0.689889
0.055379
23.9076
-0.685594
0.0543869
23.9192
-0.682341
0.0534147
23.9307
-0.6799
0.0523593
23.9421
-0.678091
0.0511551
23.9537
-0.676922
0.0497424
23.9654
-0.676166
0.0481697
23.977
-0.675707
0.0463743
23.9889
-0.675651
0.0443556
24.001
-0.675684
0.0420909
24.0133
-0.675787
0.0395295
24.0252
-0.67587
0.0366216
-0.675347
0.0334952
25.0031
0.00501807
0.000656885
25.0036
0.0241502
0.00132648
25.0008
0.0451968
0.00209007
24.9952
0.0671155
0.00298993
24.9865
0.0941186
0.00414571
24.973
0.131079
0.00564381
24.9534
0.182755
0.00749282
24.9224
0.260239
0.00984017
6.21348
0.385488
0.0125641
6.22151
6.21317
6.22116
-0.105488
6.19813
0.119033
0.00180427
-0.0391635
-1.54214
1.536
0.0449918
0.000314869
-0.0817926
-1.50649
1.48787
0.100005
0.000406301
0.0044626
-0.0747404
0.0749366
-0.00468834
2.95187e-05
-0.0214075
0.000449743
0.0209188
2.93319e-06
3.60225e-05
-0.23337
0.0162125
-0.027373
0.00168989
0.242841
-1.20584
0.0648065
-0.082659
0.00166036
1.22204
0.0556754
-1.25428
1.26062
-0.0633259
0.00131245
0.0512495
-1.28193
1.28946
-0.0598492
0.00106441
0.0464594
-1.30965
1.31628
-0.0538686
0.000779045
0.0436203
-1.33429
1.34133
-0.0510364
0.000377906
-1.3883
0.206973
5.84868
-0.221577
-0.0171416
-1.49605
-1.4293
-1.50328
24.1392
-0.680091
-0.117365
-5.8952
-6.17458
-5.86566
-6.173
24.1632
-0.651839
-0.114133
24.1855
-0.636925
-0.110624
24.207
-0.626025
-0.107869
24.2272
-0.617297
-0.10571
24.2463
-0.610778
-0.103842
24.2647
-0.606152
-0.1022
24.2827
-0.602891
-0.10066
24.3003
-0.600738
-0.0992403
24.3178
-0.599403
-0.097945
24.3352
-0.598657
-0.0968183
24.3525
-0.598407
-0.095817
24.3698
-0.59841
-0.0950433
24.387
-0.598501
-0.0944159
24.4038
-0.598482
-0.0940145
24.4205
-0.59844
-0.0938852
24.4367
-0.597966
-0.0940681
24.4523
-0.596735
-0.0946994
-0.593855
-0.0959909
25.0048
-3.073e-05
0.000475222
25.0102
0.0178719
0.000943457
25.0152
0.0387442
0.001432
25.0193
0.0610916
0.00197622
25.0212
0.0895949
0.00255564
25.0264
0.122756
0.00322822
25.0385
0.166832
0.00384094
25.0644
0.230169
0.00418951
6.27444
0.330333
0.00388283
6.28222
6.27463
6.28445
-0.111119
6.28219
0.102981
0.000395712
-0.0444222
-1.57798
1.57967
0.0427094
1.88925e-05
-0.0839054
-1.59813
1.61305
-9.81001e-05
0.0690793
-0.0261231
-1.71292
1.75213
-0.000884951
0.0567354
-0.0213304
-0.0262201
-0.0213917
0.0998051
-1.71285
1.68325
-0.000885258
-0.0693287
0.102579
-1.60978
-0.0016766
1.5993
-0.0904235
0.0788562
-1.58483
-0.00175275
1.58188
-0.0741553
0.0577834
-1.5771
1.57612
-0.0550117
-0.00178488
0.0584131
-1.57422
1.57237
-0.054745
-0.00182203
0.0526247
-1.57185
1.57116
-0.0500783
-0.00186223
0.0488326
-1.57015
1.56964
-0.0464137
-0.00191219
-1.56735
0.183152
6.26385
-0.161772
-0.016945
-1.56686
-1.5671
-1.56698
25.0702
-0.545073
-0.131382
-6.26766
-6.26758
-6.27016
-6.26841
25.0725
-0.52389
-0.130308
25.0713
-0.50717
-0.128485
25.069
-0.49711
-0.126674
25.0668
-0.489986
-0.125129
25.0648
-0.484949
-0.123812
25.0629
-0.481401
-0.122806
25.0607
-0.47874
-0.122033
25.059
-0.477449
-0.121516
25.0573
-0.476496
-0.121229
25.0556
-0.475791
-0.121205
25.0543
-0.47582
-0.121273
25.0532
-0.475741
-0.121591
25.0521
-0.475347
-0.12201
25.0516
-0.475352
-0.12263
25.0515
-0.474872
-0.12345
25.0519
-0.473919
-0.124477
25.0531
-0.472161
-0.125769
-0.469775
-0.12726
25.0058
-0.00512199
0.000248898
25.0144
0.00875388
0.000554175
25.0275
0.0248285
0.00079636
25.0389
0.0486812
0.000981582
25.0544
0.0731207
0.0010656
25.0779
0.0983451
0.000946599
25.1157
0.1286
0.000452688
25.1788
0.168043
-0.000887614
6.32052
0.229524
-0.00359334
6.3187
6.32484
6.31927
-0.0882841
6.33659
0.072989
-0.000774304
-0.0330843
6.41308
0.0871625
-0.00173815
-0.0342431
-0.0331733
-0.0337551
-6.36425
-0.0331544
6.51666
0.074812
-0.00355548
-0.0258843
-0.0329263
-0.0257257
-6.47022
-0.0069997
-6.54723
6.51341
-0.00679839
-0.00634625
0.0153929
-0.00718034
0.0457527
0.0458164
-6.53511
6.51337
-0.124598
-0.00955741
0.0396322
0.0365237
0.0339302
0.0554818
-6.44896
6.41146
-0.1788
-0.0118571
0.0559745
0.0578825
0.058838
0.0569202
-6.37156
6.33944
-0.177253
-0.0133901
0.0556687
0.0558702
0.054301
0.047232
-6.32131
6.31006
-0.15933
-0.0145749
0.0463082
0.0461069
0.0454972
0.0452158
-6.30134
6.29541
-0.158337
-0.0153788
0.0449702
0.0448392
0.0446106
0.0421299
-6.29093
6.28552
-0.145221
-0.015822
0.0416025
0.0416869
0.0410214
0.0390657
-6.28127
6.27586
-0.132689
-0.0160423
0.0385619
0.0385837
0.0379286
0.144076
-6.27438
6.27256
-0.126001
-0.0162617
25.0718
-0.405696
-0.130753
-6.27019
-6.2703
-6.27045
-6.26952
25.0651
-0.387651
-0.129571
25.0621
-0.375946
-0.128192
25.0599
-0.367989
-0.126971
25.0584
-0.362572
-0.125903
25.0571
-0.358669
-0.124952
25.056
-0.356157
-0.124128
25.0552
-0.354534
-0.123442
25.0543
-0.353608
-0.122897
25.0534
-0.353161
-0.12249
25.0527
-0.352795
-0.122247
25.052
-0.353096
-0.122096
25.0512
-0.352913
-0.122022
25.0512
-0.353238
-0.122092
25.0512
-0.353072
-0.122284
25.0514
-0.352472
-0.122585
25.0525
-0.352024
-0.123038
25.0551
-0.351029
-0.123694
-0.349919
-0.124583
25.0064
-0.010296
0.000152541
25.0165
-0.0015147
0.000262266
25.0255
0.0155024
0.000278598
25.0423
0.0317943
0.000185602
25.069
0.0465452
-0.000156024
25.1026
0.0657611
-0.000877285
25.1501
0.0834354
-0.00221225
25.2163
0.106536
-0.00463943
25.3251
0.129766
-0.00883687
25.4297
0.142768
-0.0157009
-0.0608373
-0.0563439
-0.0580792
-0.0562717
25.5766
0.129511
-0.0261408
-0.0600662
-0.0633646
-0.0606928
-0.0659793
25.7098
0.0510542
-0.0410125
-0.041134
-0.0272217
-0.0441343
-0.030446
25.5876
-0.160117
-0.0590204
0.0223286
0.125241
0.0213073
0.172893
25.4958
-0.241875
-0.0781962
0.0846121
0.118278
0.100307
0.109044
25.4279
-0.253109
-0.0941873
0.0844372
0.15
0.032914
0.14824
25.3424
-0.35774
-0.106205
0.137025
0.140102
0.135195
0.137245
25.2584
-0.32758
-0.114093
0.130909
0.134559
0.128473
0.1317
25.1925
-0.336983
-0.118992
0.133799
0.130656
0.130494
0.126821
25.15
-0.314632
-0.12175
0.123344
0.119999
0.119863
0.115646
25.1271
-0.293959
-0.123132
0.112198
0.111755
0.10734
0.108614
25.1089
-0.277723
-0.123659
0.106973
0.106077
0.104049
0.102454
25.0929
-0.26612
-0.123568
25.0836
-0.25542
-0.122996
25.0778
-0.247753
-0.122367
25.0735
-0.241875
-0.121857
25.0701
-0.237755
-0.121351
25.0676
-0.235269
-0.12095
25.065
-0.232883
-0.120671
25.0629
-0.231893
-0.120525
25.0607
-0.230898
-0.120516
25.0589
-0.230753
-0.120629
25.0576
-0.230603
-0.120859
25.056
-0.230308
-0.121191
25.0551
-0.230532
-0.121522
25.0541
-0.230212
-0.121985
25.0535
-0.230034
-0.122473
25.054
-0.229898
-0.12302
25.0551
-0.229523
-0.123643
25.0565
-0.228095
-0.124371
-0.226826
-0.125206
25.0068
-0.0152634
4.74431e-05
25.0101
-0.0048705
5.18964e-05
25.018
0.00768376
-8.49125e-05
25.0378
0.0124143
-0.000355699
25.0635
0.0219027
-0.000965403
25.093
0.0384175
-0.00207628
25.141
0.0394947
-0.00390873
25.2022
0.0524237
-0.0068613
25.2811
0.0626662
-0.011579
25.3764
0.0664231
-0.018638
25.4825
0.0525071
-0.0286398
25.5616
0.0146169
-0.0421009
25.5387
-0.0786343
-0.0579654
25.5244
-0.152653
-0.0742647
25.4019
-0.0415947
-0.0885649
25.3198
-0.175319
-0.099918
25.2701
-0.170061
-0.107691
25.2093
-0.163165
-0.112898
25.1652
-0.154563
-0.115964
25.1342
-0.145367
-0.117639
25.1119
-0.136983
-0.118408
25.0947
-0.130515
-0.118479
25.0827
-0.12516
-0.118229
25.074
-0.121284
-0.117783
25.0677
-0.118312
-0.117338
25.0632
-0.116366
-0.116831
25.0591
-0.114787
-0.116441
25.0563
-0.113917
-0.116177
25.054
-0.113636
-0.115979
25.0522
-0.113107
-0.115916
25.0506
-0.11326
-0.115951
25.0491
-0.113034
-0.116079
25.0484
-0.11335
-0.116238
25.0476
-0.113228
-0.116456
25.0475
-0.113466
-0.116724
25.0477
-0.113178
-0.117002
25.0484
-0.113298
-0.117296
25.0496
-0.113068
-0.117632
25.052
-0.112537
-0.118049
-0.112866
-0.1186
24.9871
1.0777e-05
24.9822
-6.15169e-06
24.9902
-0.000222911
25.0031
-0.000516698
25.0264
-0.00127266
25.0674
-0.00249185
25.1116
-0.00447448
25.1719
-0.00762521
25.2474
-0.0125001
25.3338
-0.0194839
25.4159
-0.0290189
25.4725
-0.0413503
25.4502
-0.0555659
25.3684
-0.0701805
25.4108
-0.083413
25.3304
-0.0945013
25.2629
-0.102316
25.2073
-0.107435
25.1634
-0.110559
25.1303
-0.112291
25.1064
-0.113106
25.0892
-0.113263
25.077
-0.113038
25.0683
-0.112582
25.0621
-0.112166
25.0575
-0.111757
25.0542
-0.111467
25.0517
-0.111371
25.0493
-0.1113
25.0476
-0.111399
25.046
-0.111632
25.0448
-0.111905
25.0437
-0.112214
25.043
-0.11258
25.0426
-0.113022
25.0429
-0.113445
25.0434
-0.113854
25.0446
-0.114275
25.0468
-0.11475
-0.115334
24.9951
0.00198417
0.00245008
24.9879
0.0047713
0.00510044
24.9765
0.00734227
0.00822769
24.9601
0.0104601
0.0121098
24.9384
0.0132636
0.0170735
24.9089
0.0179263
0.0235439
24.8669
0.0260955
0.0319252
24.8098
0.0358959
0.0426468
24.7546
0.0271983
0.0560393
24.719
-0.000834108
0.0724532
24.6951
-0.0220645
0.0912857
24.6337
0.00464728
0.11204
24.6627
-0.0964251
0.133462
24.7803
-0.19522
0.154194
24.8124
-0.118423
0.17232
24.8361
-0.116628
0.186908
24.8591
-0.120854
0.198027
24.8782
-0.120642
0.206298
24.895
-0.120897
0.212207
24.9223
-0.133259
0.216275
24.9497
-0.134566
0.218853
24.971
-0.129352
0.220503
24.988
-0.125459
0.22156
25.0022
-0.123058
0.222281
25.014
-0.120958
0.222854
25.0242
-0.119608
0.223385
25.0328
-0.118216
0.223937
25.0399
-0.117052
0.224538
25.0461
-0.116344
0.225239
25.0515
-0.115829
0.226052
25.0559
-0.11524
0.226944
25.0595
-0.114816
0.227896
25.063
-0.115055
0.228853
25.0665
-0.115416
0.229853
25.0695
-0.115387
0.230752
25.0728
-0.116006
0.2316
25.0763
-0.116432
0.232176
25.08
-0.116979
0.232602
25.0846
-0.117803
0.232632
-0.118478
0.231703
24.9953
0.00397845
0.00239288
24.9881
0.0095211
0.00498256
24.9762
0.0152417
0.00804791
24.9599
0.0209606
0.0118749
24.9378
0.0270655
0.0167917
24.9101
0.0340731
0.023247
24.8771
0.0433138
0.0316801
24.8348
0.0568618
0.0426319
24.7726
0.0610291
0.0566174
24.6978
0.0365588
0.0740713
24.6559
-0.0281065
0.0947394
24.5956
0.00457662
0.117994
24.6314
-0.204232
0.142083
24.7631
-0.410345
0.165247
24.8429
-0.290837
0.184838
24.9099
-0.283283
0.20021
24.9597
-0.275517
0.21178
24.9998
-0.269392
0.220138
25.0449
-0.277457
0.226016
25.0772
-0.27874
0.229876
25.0962
-0.267959
0.232264
25.1099
-0.258089
0.233707
25.1193
-0.250277
0.234636
25.1266
-0.246062
0.235289
25.1327
-0.242981
0.235828
25.1369
-0.240145
0.236342
25.14
-0.237763
0.236915
25.1427
-0.2366
0.237588
25.1444
-0.235333
0.238379
25.1454
-0.2344
0.239274
25.1462
-0.234031
0.24025
25.1469
-0.233959
0.241274
25.1468
-0.233922
0.242357
25.1466
-0.234625
0.2434
25.147
-0.235565
0.24438
25.1471
-0.236214
0.245237
25.1477
-0.237557
0.245901
25.1491
-0.239058
0.246315
25.1508
-0.240149
0.246398
-0.241692
0.245499
24.9954
0.00594958
0.00227786
24.9884
0.0141436
0.00474653
24.9768
0.0230523
0.00768173
24.96
0.0321869
0.0113716
24.9369
0.0421495
0.0161614
24.9069
0.0528849
0.0225323
24.8691
0.0657525
0.0310267
24.8229
0.0818436
0.042344
24.7579
0.0973463
0.0572982
24.6639
0.0921504
0.0766262
24.588
0.0043318
0.100586
-0.00607803
0.00413335
-0.00532037
24.7235
-0.0392218
0.128289
-0.0595035
-0.0385826
-0.0581593
24.5822
0.020903
0.15717
-0.0949036
0.0229123
-0.0917101
24.7432
-0.214068
0.184728
-0.122797
-0.210381
-0.11792
24.8315
-0.127308
0.206013
-0.119722
-0.122289
-0.113853
24.8896
-0.116605
0.221879
-0.115415
-0.111178
-0.109388
24.9425
-0.114282
0.233619
-0.114058
-0.108549
-0.108133
25.0074
-0.117034
0.241874
-0.116105
-0.111329
-0.110264
25.0494
-0.113872
0.247354
-0.112617
-0.108398
-0.107672
25.0751
-0.110544
0.250571
-0.108919
-0.105842
-0.103843
25.0934
-0.411576
0.252043
25.1064
-0.396384
0.252629
25.1153
-0.384348
0.252872
25.1221
-0.378651
0.253773
25.1275
-0.374516
0.254425
25.1316
-0.370892
0.255258
25.1348
-0.367754
0.255588
25.1366
-0.365549
0.256227
25.1376
-0.363841
0.256937
25.1388
-0.363324
0.257728
25.1385
-0.361952
0.258582
25.1381
-0.362002
0.259489
25.1379
-0.362354
0.26018
25.1368
-0.362701
0.261367
25.1354
-0.363753
0.262241
25.1344
-0.365033
0.263007
25.1335
-0.366736
0.263581
25.133
-0.368622
0.263882
25.1334
-0.370648
0.263858
-0.372479
0.262888
24.9964
0.00750992
0.00210117
24.9898
0.0185912
0.00438007
24.9785
0.0308146
0.00709788
24.962
0.0435366
0.0105372
24.9388
0.057861
0.0150529
24.9058
0.0754371
0.0211426
24.8612
0.0956305
0.0294786
24.8037
0.11893
0.0409171
24.7362
0.13645
0.0566785
6.14334
0.0367776
0.0782708
0.0514921
0.0366876
0.0510473
6.16334
6.14349
6.16284
-0.0113753
6.12639
0.0153598
0.0172425
-0.0151752
-6.11466
6.10308
-0.0354988
0.0229693
-0.0192628
-6.10728
6.09991
0.0182903
0.0291824
-0.0235131
-6.11525
6.14696
-0.257931
0.0356099
-0.0268024
-6.16474
6.17822
-0.154595
0.040568
-0.0291212
-6.19096
6.20148
-0.142016
0.0440089
-0.0308757
-6.21216
6.22639
-0.144219
0.0466184
-0.032161
-6.23907
6.24625
-0.140516
0.0485192
-0.0330142
-6.25203
6.25718
-0.135693
0.0497263
-0.0335233
-6.26089
6.26481
-0.13136
0.0504413
25.0991
-0.144016
0.279002
-0.143979
-0.142401
-0.140073
-6.26856
-6.2722
-6.26809
-6.27158
25.1064
-0.541957
0.277575
25.1108
-0.526306
0.276335
25.1148
-0.521394
0.277023
25.1172
-0.516587
0.277712
25.1179
-0.512236
0.278819
25.118
-0.509165
0.279493
25.117
-0.506366
0.280468
25.1147
-0.50393
0.281457
25.111
-0.502345
0.282429
25.1066
-0.500633
0.283362
25.1011
-0.499806
0.284241
25.0945
-0.499044
0.284775
25.0874
-0.499164
0.285733
25.0797
-0.499648
0.286205
25.072
-0.500807
0.286573
25.0638
-0.50184
0.286545
25.056
-0.50376
0.286118
25.0497
-0.506581
0.285161
-0.508474
0.283027
24.9982
0.0073829
0.00186072
24.9928
0.0220481
0.00387991
24.9831
0.0374461
0.00628067
24.9682
0.0538261
0.00932174
24.9459
0.0735581
0.0133373
24.9137
0.0985844
0.0185441
24.865
0.131068
0.0263815
24.7928
0.172638
0.036996
6.17356
0.221308
0.0521822
6.16678
6.17402
6.16708
-0.00772774
6.1587
0.047603
0.0117529
-0.0109795
6.13341
0.0167242
-6.16156
0.0190745
0.0108662
0.0193551
0.0105866
-0.0374612
-0.0152046
-6.0814
6.04894
0.0232788
-0.00324621
0.00243087
-0.00319007
0.00230574
0.026074
-0.0203675
-6.04796
6.0618
0.0312479
0.0516387
-0.0412527
0.0512027
-0.0410814
-0.0451785
-0.0259195
-6.1019
6.14224
0.039663
-0.0511317
-0.129537
-0.051892
-0.129026
0.307571
-0.0289721
-6.17178
6.18189
0.0444924
-0.0498836
-0.0538226
-0.0507974
-0.0529823
0.181871
-0.0308746
-6.19417
6.20766
0.0473389
-0.0510854
-0.0508667
-0.0517942
-0.0501293
0.173974
-0.0325205
-6.22125
6.2333
0.0496164
-0.0497647
-0.0501052
-0.0502149
-0.0496203
0.170686
-0.0338373
-6.24315
6.25048
0.0512275
-0.0469549
-0.0473314
-0.0474132
-0.0470784
0.164161
-0.0347756
-6.25696
6.26118
0.0521808
-0.0445554
-0.044795
-0.0445539
-0.0447624
0.157092
-0.0354094
-6.26513
6.26711
0.0526453
-0.0425006
-0.0425149
-0.0420726
-0.0426766
0.150557
-6.26943
-0.0359211
6.27122
-0.162725
0.0528408
25.0468
-0.64701
0.279924
-6.27263
-6.26639
-6.27243
-6.26555
25.0242
-0.637839
0.276108
24.9996
-0.631408
0.273336
24.975
-0.626186
0.270115
24.9518
-0.622779
0.267255
24.9292
-0.619911
0.26503
24.9075
-0.616965
0.26265
24.8863
-0.614065
0.26078
24.8649
-0.611202
0.259067
24.8438
-0.608611
0.25742
24.8227
-0.606458
0.255543
24.8016
-0.604773
0.254134
24.7804
-0.603511
0.252328
24.7596
-0.603092
0.250394
24.7388
-0.603125
0.248256
24.7191
-0.603815
0.245752
24.7005
-0.605261
0.242716
24.6837
-0.607943
0.238993
-0.612636
0.23408
25.0019
0.00400465
0.00155009
24.9996
0.0228508
0.00324654
24.9917
0.0426752
0.00523221
24.9796
0.0621773
0.00771964
24.962
0.085732
0.0109759
24.936
0.117469
0.0148675
24.8938
0.162526
0.0214259
24.8228
0.228484
0.0298439
6.17296
0.331964
0.0420745
6.17201
6.17329
6.17212
-0.0060547
-0.0623644
6.14781
0.0841255
0.00941402
-0.0019774
-0.0185454
-1.52833
1.52317
0.0230559
0.00261769
-0.00295094
-0.01721
-1.50524
1.49287
0.0287799
0.00374907
-0.00448989
-1.47057
0.0532981
1.48059
-0.0644526
0.00566112
-0.00638444
-1.52983
0.153917
1.54115
-0.166973
0.0081591
-0.00682898
-1.53713
0.0606728
-0.0652152
1.53907
0.00944182
-1.54815
-0.00710068
0.0603517
-0.0655408
0.00960703
1.55083
-0.00758803
0.058024
-1.55639
1.55786
-0.0618106
0.00991553
-0.00827873
0.0533728
-1.56095
1.56157
-0.0558788
0.0101691
-0.0089385
0.0495059
-1.56252
1.56271
-0.0509369
0.0101798
-0.00937858
0.0460455
-1.56253
1.5623
-0.0464444
0.0100038
-1.5569
-0.0345329
0.173373
6.16885
-0.158182
0.0448917
-1.54372
-1.55517
-1.53861
23.8517
-0.747451
0.139293
-6.10872
-5.81171
-6.1027
-5.79525
23.868
-0.723797
0.136324
23.8808
-0.715055
0.133932
23.8925
-0.70829
0.130694
23.903
-0.70285
0.127653
23.9123
-0.697887
0.12523
23.9213
-0.69309
0.122556
23.9299
-0.68843
0.120175
23.9384
-0.684042
0.117738
23.947
-0.679992
0.115155
23.9559
-0.67636
0.112146
23.9647
-0.673291
0.109397
23.9739
-0.670717
0.106167
23.9832
-0.668656
0.102709
23.9925
-0.667074
0.0989441
24.0019
-0.665924
0.0947789
24.0114
-0.665162
0.09001
24.0206
-0.664776
0.0842422
-0.664837
0.0766069
25.009
0.00271305
0.00125896
25.0097
0.0209028
0.00254453
25.0063
0.0441319
0.00402858
24.9994
0.0661327
0.00583373
24.9894
0.0917722
0.00810955
24.9757
0.126189
0.0105535
24.9561
0.174712
0.0148845
24.9255
0.24907
0.0198118
6.21378
0.372435
0.026392
6.22173
6.21381
6.2219
-0.00358109
-0.101979
6.19836
0.115374
0.00560127
-0.00108989
-0.0380451
-1.54214
1.536
0.0438353
0.00143685
-0.00151401
-0.0800682
-1.50629
1.48805
0.0980345
0.00179324
-0.000200189
0.00453124
-0.0748713
0.0751101
-0.00477025
0.000200944
-0.000170253
-0.239665
0.0194815
-0.0289771
-0.00244454
0.251773
-1.25368
0.00770572
0.0797459
-0.0932047
-0.00831483
1.26775
0.010123
0.0669001
-1.28923
1.28983
-0.0699305
-0.00768756
0.0106679
0.0595577
-1.29205
1.29356
-0.0648762
-0.00685363
0.0102346
0.0494817
-1.29742
1.29964
-0.055505
-0.00643735
0.00938706
0.0420306
-1.30821
1.3137
-0.0503514
-0.00656237
-1.36424
0.0318794
0.186381
5.7888
-0.215821
-0.0424613
-1.48942
-1.40031
-1.49482
24.0796
-0.676148
-0.223185
-5.85131
-6.16751
-5.85476
-6.17155
24.1093
-0.647815
-0.219755
24.1367
-0.637493
-0.215665
24.1621
-0.629951
-0.211614
24.1846
-0.623653
-0.207338
24.2043
-0.618721
-0.202797
24.2222
-0.615031
-0.198145
24.2389
-0.612194
-0.193562
24.2549
-0.610072
-0.189208
24.2706
-0.608482
-0.185197
24.2866
-0.60748
-0.181635
24.303
-0.60706
-0.178541
24.3203
-0.606995
-0.176013
24.3381
-0.606855
-0.174002
24.3562
-0.60669
-0.17255
24.3745
-0.606386
-0.171716
24.3928
-0.605816
-0.171701
24.4105
-0.604416
-0.17274
-0.600937
-0.175149
25.0084
-0.00246629
0.000898421
25.0155
0.0129219
0.00179835
25.0222
0.0360936
0.00275701
25.0261
0.0604276
0.00382531
25.0253
0.0900962
0.005028
25.0295
0.119154
0.00609765
25.0412
0.159324
0.00767091
25.0689
0.217037
0.00865346
6.27556
0.305213
0.00868367
6.28789
6.27687
6.29118
-0.000848955
-0.107117
6.28289
0.0993225
0.00133092
-8.37595e-05
-0.0433078
-1.57766
1.57931
0.0416457
9.54532e-05
0.000398906
-0.0798237
-1.59964
1.61617
0.0634814
-0.000590819
0.00188425
-0.0257447
-1.71194
1.74952
0.0570618
-0.0015724
-0.021148
-0.0266676
-0.0214344
0.00393942
0.112507
-1.70951
1.67859
-0.0800987
-0.0054704
0.107407
-1.60905
0.00513596
1.5981
-0.0944122
-0.00718624
0.00614583
0.0768961
-1.58333
-0.00828285
1.58121
-0.0726278
0.00691651
0.056776
-1.57795
1.57644
-0.0531987
-0.00897657
0.00744843
0.0580621
-1.57552
1.57406
-0.0546936
-0.0093545
0.00780303
0.0516493
-1.57317
1.5725
-0.0492394
-0.00954724
0.00795995
0.0475082
-1.56969
1.56999
-0.0461824
-0.00958542
-1.57006
0.0322976
0.180151
6.27507
-0.158535
-0.047424
-1.57013
-1.57038
-1.57099
25.0903
-0.525434
-0.264517
-6.27757
-6.27022
-6.28401
-6.27609
25.0897
-0.514565
-0.262954
25.0859
-0.501485
-0.260683
25.0815
-0.49351
-0.25872
25.0768
-0.487258
-0.256927
25.0729
-0.483333
-0.255252
25.0692
-0.480422
-0.253785
25.0661
-0.478489
-0.252598
25.0635
-0.477279
-0.251724
25.0613
-0.476356
-0.251174
25.0596
-0.476016
-0.250956
25.0588
-0.476196
-0.251286
25.058
-0.476422
-0.251448
25.0573
-0.476053
-0.252128
25.0574
-0.476316
-0.253089
25.0579
-0.475837
-0.254438
25.0587
-0.474866
-0.256272
25.06
-0.472769
-0.25869
-0.469963
-0.261522
25.0071
-0.00720894
0.000559903
25.0173
0.00216125
0.00107663
25.0316
0.0211114
0.00154327
25.0401
0.0510815
0.00191566
25.0577
0.0715519
0.00210176
25.081
0.0950238
0.00191274
25.1185
0.121471
0.000982894
25.1832
0.153081
-0.00139811
6.32922
0.192885
-0.00650369
6.31855
6.33352
6.31736
-0.0843566
0.00143844
6.3474
0.0669636
-0.00220615
-0.0323573
0.00351332
6.42053
0.0851062
-0.00510546
-0.0302743
-0.032468
-0.0292393
-6.37974
-0.028469
0.00732299
6.49047
0.0782696
-0.0107446
-0.0279244
-0.0273331
-0.0300142
-6.45159
-0.00844575
0.0129253
-6.53814
6.4971
-0.060793
-0.0197554
0.0636478
-0.0096034
0.0630239
0.0357662
0.0198835
-6.49004
6.47225
-0.146229
-0.0299383
0.0521089
0.0349709
0.0512198
0.0588398
-6.44932
0.0252652
6.4064
-0.185058
-0.037715
0.0579323
0.0623193
0.0613936
0.0568186
0.0285954
-6.36673
6.33914
-0.179815
-0.0427098
0.0549426
0.0557881
0.0539864
0.0467315
0.0308778
-6.32527
6.318
-0.161806
-0.0460886
0.0460966
0.0459433
0.045451
0.0453998
0.0323085
-6.3135
6.30536
-0.157257
-0.0481646
0.0458447
0.0447393
0.045191
0.0444059
0.0329698
-6.29655
6.28757
-0.146268
-0.0491985
0.0418465
0.0438675
0.0413172
0.0391946
0.0332012
-6.28022
6.27256
-0.128527
-0.0495511
0.0361673
0.0397433
0.0374205
0.138907
-6.27127
0.0334102
6.27184
-0.123335
-0.0495551
25.0742
-0.385572
-0.266448
-6.27051
-6.26851
-6.27112
-6.26825
25.0689
-0.375237
-0.263647
25.0661
-0.365861
-0.261055
25.0637
-0.358942
-0.259148
25.0622
-0.354248
-0.257444
25.0605
-0.350762
-0.25587
25.0593
-0.348855
-0.254467
25.0584
-0.34778
-0.253267
25.0573
-0.346831
-0.252292
25.0569
-0.346819
-0.251558
25.0562
-0.346587
-0.251041
25.0559
-0.346975
-0.25103
25.0552