/*--------------------------------*- C++ -*----------------------------------*\
| =========                 |                                                 |
| \\      /  F ield         | OpenFOAM: The Open Source CFD Toolbox           |
|  \\    /   O peration     | Version:  2306                                  |
|   \\  /    A nd           | Website:  www.openfoam.com                      |
|    \\/     M anipulation  |                                                 |
\*---------------------------------------------------------------------------*/
FoamFile
{
    version     2.0;
    format      ascii;
    arch        "LSB;label=32;scalar=64";
    class       volVectorField;
    location    "1.2";
    object      U;
}
// * * * * * * * * * * * * * * * * * * * * * * * * * * * * * * * * * * * * * //

dimensions      [0 1 -1 0 0 0 0];

internalField   nonuniform List<vector> 
111542
(
(99.9933 0.00568784 0.00254818)
(99.9708 0.011504 0.00542855)
(99.9292 0.0174119 0.00870055)
(99.8673 0.023562 0.0127823)
(99.7838 0.0297039 0.0180247)
(99.6769 0.0350697 0.0248549)
(99.5458 0.037809 0.0335338)
(99.3928 0.0349643 0.0445705)
(99.2274 0.0219094 0.0585074)
(99.0694 -0.00775653 0.0754507)
(98.9517 -0.0596989 0.0950076)
(98.9143 -0.131629 0.116441)
(98.9828 -0.205486 0.138945)
(99.1475 -0.261679 0.160509)
(99.3633 -0.289587 0.179435)
(99.5818 -0.298785 0.195119)
(99.7766 -0.298115 0.207287)
(99.9404 -0.29212 0.216336)
(100.075 -0.283654 0.222712)
(100.182 -0.274719 0.227068)
(100.267 -0.266661 0.229733)
(100.334 -0.259703 0.231314)
(100.385 -0.253689 0.232448)
(100.426 -0.249098 0.233215)
(100.458 -0.245831 0.233867)
(100.484 -0.243486 0.234745)
(100.506 -0.242195 0.235701)
(100.523 -0.241822 0.236791)
(100.536 -0.242036 0.23817)
(100.545 -0.242677 0.239798)
(100.553 -0.243666 0.241573)
(100.558 -0.244997 0.243345)
(100.561 -0.246462 0.24517)
(100.563 -0.247998 0.246973)
(100.565 -0.249586 0.248633)
(100.568 -0.251233 0.25003)
(100.571 -0.252981 0.25101)
(100.575 -0.254685 0.251643)
(100.583 -0.256358 0.251903)
(100.597 -0.258215 0.251803)
(99.9935 0.0169355 0.00250368)
(99.9715 0.0341924 0.00526618)
(99.9304 0.0521187 0.00851622)
(99.869 0.0710841 0.0125669)
(99.7849 0.0905117 0.0177628)
(99.6748 0.108346 0.0245242)
(99.5356 0.119702 0.0333026)
(99.367 0.115812 0.0446408)
(99.175 0.0820997 0.0590647)
(98.9783 -0.00243742 0.0768215)
(98.8179 -0.155123 0.0978237)
(98.7593 -0.369526 0.120421)
(98.8461 -0.593476 0.14483)
(99.0559 -0.755303 0.168396)
(99.3162 -0.836462 0.188758)
(99.5627 -0.866651 0.205079)
(99.772 -0.867759 0.217515)
(99.943 -0.852664 0.226597)
(100.08 -0.830265 0.232923)
(100.187 -0.805812 0.237124)
(100.269 -0.782799 0.239808)
(100.333 -0.763349 0.241612)
(100.381 -0.747635 0.242973)
(100.419 -0.735608 0.244063)
(100.449 -0.725603 0.245044)
(100.474 -0.716619 0.246084)
(100.494 -0.709177 0.247253)
(100.509 -0.703524 0.248612)
(100.522 -0.699432 0.250199)
(100.531 -0.696767 0.251982)
(100.538 -0.695488 0.253898)
(100.542 -0.695571 0.255867)
(100.545 -0.696736 0.257838)
(100.547 -0.698828 0.25973)
(100.549 -0.70175 0.261439)
(100.55 -0.705418 0.262868)
(100.553 -0.709775 0.26392)
(100.557 -0.714527 0.264561)
(100.563 -0.719543 0.264774)
(100.574 -0.724782 0.264652)
(99.9939 0.0277406 0.00238695)
(99.9729 0.0561037 0.00501346)
(99.9335 0.0863219 0.00813146)
(99.8736 0.119238 0.0120358)
(99.7894 0.154597 0.0170831)
(99.6748 0.190101 0.0237362)
(99.5224 0.219487 0.0325608)
(99.3247 0.229195 0.0442355)
(99.0791 0.192688 0.0595065)
(98.8027 0.0616663 0.0790258)
(98.5546 -0.272465 0.10321)
(98.4455 -0.734101 0.131434)
(98.5699 -1.15195 0.158357)
(98.8734 -1.39169 0.184289)
(99.2142 -1.49056 0.20601)
(99.5088 -1.52113 0.222791)
(99.7457 -1.5079 0.235281)
(99.9307 -1.47282 0.244195)
(100.072 -1.42996 0.250205)
(100.178 -1.38582 0.254023)
(100.257 -1.34608 0.256559)
(100.315 -1.30972 0.258391)
(100.358 -1.28585 0.259908)
(100.393 -1.27333 0.26138)
(100.422 -1.2652 0.262869)
(100.446 -1.25828 0.264371)
(100.465 -1.25244 0.265933)
(100.479 -1.24789 0.267621)
(100.489 -1.24454 0.269479)
(100.495 -1.24238 0.271511)
(100.499 -1.24146 0.273685)
(100.5 -1.24185 0.275938)
(100.499 -1.24349 0.278188)
(100.497 -1.2463 0.280338)
(100.493 -1.25018 0.282268)
(100.49 -1.25503 0.283861)
(100.487 -1.26071 0.285003)
(100.485 -1.267 0.285616)
(100.486 -1.27361 0.2857)
(100.491 -1.27994 0.285448)
(99.9945 0.0376047 0.00220395)
(99.9757 0.0764267 0.00462662)
(99.9399 0.118777 0.00750859)
(99.8842 0.166667 0.0111384)
(99.8032 0.22128 0.0158766)
(99.6876 0.28211 0.0222087)
(99.5232 0.34496 0.0307828)
(99.2893 0.397338 0.042433)
(98.9573 0.409694 0.0582078)
(98.4635 0.208735 0.0793977)
(98.2087 0.0292085 0.0860757)
(97.8665 -0.625132 0.101894)
(97.9331 -1.4254 0.116521)
(98.4087 -1.93949 0.12964)
(98.9037 -2.09288 0.142564)
(99.2888 -2.13038 0.151785)
(99.5971 -2.10051 0.158382)
(99.8285 -2.03528 0.162865)
(99.9976 -1.96117 0.165678)
(100.122 -1.89233 0.167392)
(100.28 -1.95335 0.279288)
(100.322 -1.88212 0.282975)
(100.34 -1.82918 0.284968)
(100.354 -1.79474 0.286229)
(100.369 -1.77005 0.287507)
(100.381 -1.75231 0.288994)
(100.386 -1.74045 0.290725)
(100.385 -1.73324 0.292712)
(100.379 -1.72958 0.294929)
(100.369 -1.72882 0.297313)
(100.353 -1.73057 0.299775)
(100.333 -1.73453 0.30221)
(100.31 -1.74043 0.304493)
(100.284 -1.74798 0.306489)
(100.255 -1.75692 0.308053)
(100.225 -1.76699 0.309045)
(100.195 -1.77798 0.309329)
(100.167 -1.78971 0.308819)
(100.14 -1.80183 0.30753)
(100.111 -1.81302 0.305791)
(99.9956 0.0457751 0.00195396)
(99.9803 0.0935336 0.00409664)
(99.9509 0.146896 0.00663563)
(99.9041 0.209604 0.00983194)
(99.8335 0.285429 0.0140193)
(99.7278 0.378063 0.0196479)
(99.5674 0.490286 0.0273426)
(99.3201 0.62077 0.0379316)
(98.8813 0.756234 0.0525052)
(98.54 0.762295 0.0578208)
(97.7337 0.372892 0.071324)
(96.9354 -0.691662 0.089133)
(97.0307 -2.34019 0.104684)
(98.1483 -2.94355 0.116657)
(98.8579 -2.97949 0.130283)
(99.3125 -2.95072 0.138872)
(99.6658 -2.8484 0.145078)
(99.9041 -2.72537 0.149838)
(100.062 -2.60708 0.153562)
(100.159 -2.50827 0.156967)
(100.222 -2.45754 0.163738)
(100.135 -2.57265 0.315439)
(100.019 -2.54835 0.316887)
(99.9104 -2.51261 0.315482)
(99.8146 -2.47339 0.312545)
(99.7226 -2.43858 0.309157)
(99.6319 -2.4095 0.306046)
(99.5428 -2.38533 0.303564)
(99.4548 -2.36549 0.301758)
(99.3677 -2.34981 0.300479)
(99.281 -2.33817 0.299479)
(99.1947 -2.33041 0.298482)
(99.1092 -2.32625 0.297218)
(99.0247 -2.32536 0.295448)
(98.9421 -2.32733 0.292976)
(98.8621 -2.3317 0.289648)
(98.7858 -2.33814 0.285336)
(98.7144 -2.34655 0.279979)
(98.6504 -2.35748 0.273643)
(98.5879 -2.37309 0.266829)
(99.9971 0.0513178 0.00164063)
(99.987 0.105387 0.00342836)
(99.9672 0.167077 0.00551962)
(99.935 0.241978 0.00811917)
(99.8848 0.33694 0.0114854)
(99.8062 0.461265 0.0159554)
(99.6801 0.628579 0.0219819)
(99.4701 0.859139 0.0301254)
(99.0528 1.18437 0.0410584)
(98.646 1.34459 0.0453944)
(97.6964 1.48351 0.0437259)
(95.5955 0.710603 0.0412712)
(94.4038 -3.43309 0.0570253)
(98.1993 -4.71486 0.0473177)
(98.704 -3.92022 0.0680274)
(99.2561 -3.85288 0.0491864)
(99.6332 -3.64729 0.0132057)
(99.7989 -3.43171 -0.0214323)
(99.8408 -3.24724 -0.0520143)
(99.7876 -3.07343 -0.0771048)
(98.5253 -2.92758 0.106361)
(95.1176 -2.56676 0.185496)
(95.1798 -2.60476 0.174191)
(95.2595 -2.60952 0.165404)
(95.3279 -2.60243 0.157309)
(95.3863 -2.59597 0.149201)
(95.4408 -2.59248 0.141032)
(95.4937 -2.59145 0.132813)
(95.5453 -2.59229 0.124554)
(95.5956 -2.59467 0.116265)
(95.6448 -2.59839 0.107939)
(95.6935 -2.60336 0.0995465)
(95.742 -2.60956 0.0910433)
(95.7905 -2.61694 0.0824011)
(95.8392 -2.62535 0.073609)
(95.8883 -2.63459 0.0646562)
(95.9381 -2.6444 0.055516)
(95.9884 -2.65473 0.0461322)
(96.0384 -2.66615 0.0364878)
(96.0952 -2.68101 0.0270946)
(99.999 0.0532829 0.00131882)
(99.9953 0.109866 0.0026858)
(99.988 0.175405 0.00423661)
(99.9755 0.25675 0.00610676)
(99.9553 0.362938 0.00843373)
(99.9225 0.507557 0.0113744)
(99.8689 0.71264 0.0150812)
(99.7801 1.01672 0.0196119)
(99.6084 1.49309 0.0247487)
(99.3417 1.89149 0.0269083)
(98.6243 2.82409 0.0245118)
(95.4745 5.80891 0.0220521)
(77.1645 -4.35692 0.0330992)
(102.739 -10.2922 0.0231383)
(59.1767 -5.4231 0.160791)
(76.9661 -4.95853 0.219026)
(80.023 -3.93043 0.249749)
(82.1663 -3.36943 0.27008)
(83.9113 -3.03738 0.262988)
(85.5052 -2.88395 0.227274)
(93.2428 -3.77457 -0.0707398)
(96.428 -3.35644 -0.262807)
(96.5402 -3.21735 -0.261769)
(96.6609 -3.11193 -0.258323)
(96.7587 -3.03196 -0.255039)
(96.8421 -2.96954 -0.252945)
(96.9204 -2.92035 -0.252012)
(96.9965 -2.88151 -0.251957)
(97.0708 -2.85074 -0.252471)
(97.1433 -2.82619 -0.253246)
(97.2147 -2.80645 -0.254019)
(97.2854 -2.79048 -0.254589)
(97.3558 -2.77746 -0.254824)
(97.4259 -2.76671 -0.254657)
(97.4956 -2.7576 -0.254085)
(97.5647 -2.74956 -0.253187)
(97.6327 -2.74202 -0.252152)
(97.6993 -2.73431 -0.251268)
(97.7637 -2.72544 -0.25095)
(97.8399 -2.71301 -0.251822)
(100.001 0.0513285 0.00100948)
(100.004 0.105806 0.00193733)
(100.011 0.169388 0.00291588)
(100.02 0.249075 0.00399705)
(100.034 0.354094 0.00518816)
(100.055 0.498109 0.006441)
(100.089 0.702552 0.00758207)
(100.151 1.00317 0.00815075)
(100.296 1.462 0.00710383)
(100.345 1.87108 0.00665244)
(100.62 2.85286 0.00266351)
(102.433 5.38039 -0.00339275)
(111.165 3.94382 -0.0356703)
(109.081 -6.7319 0.0258612)
(102.815 -6.80493 -0.04439)
(101.144 -5.02723 -0.0465226)
(100.683 -4.03764 -0.0351869)
(100.501 -3.49109 -0.0269452)
(100.411 -3.17033 -0.0227981)
(100.342 -2.97884 -0.022775)
(100.255 -2.75558 -0.138329)
(100.288 -2.3141 -0.274536)
(100.276 -2.19956 -0.275201)
(100.267 -2.12983 -0.27377)
(100.261 -2.0881 -0.27167)
(100.254 -2.06107 -0.269751)
(100.246 -2.04341 -0.268301)
(100.239 -2.03286 -0.267434)
(100.232 -2.02782 -0.267182)
(100.225 -2.02687 -0.267496)
(100.219 -2.02894 -0.268286)
(100.213 -2.03312 -0.269457)
(100.208 -2.03864 -0.270924)
(100.203 -2.04475 -0.272616)
(100.199 -2.05077 -0.274479)
(100.197 -2.056 -0.276488)
(100.195 -2.05982 -0.278661)
(100.196 -2.06146 -0.281059)
(100.2 -2.05984 -0.283769)
(100.211 -2.05282 -0.286751)
(100.003 0.0450158 0.000549842)
(100.013 0.0928147 0.00110088)
(100.032 0.148646 0.00158107)
(100.062 0.218523 0.00193317)
(100.107 0.310006 0.00206345)
(100.174 0.433298 0.0017643)
(100.278 0.602591 0.000613716)
(100.444 0.837329 -0.00217343)
(100.761 1.16184 -0.008039)
(100.985 1.40022 -0.0104127)
(101.838 1.85404 -0.0185821)
(103.453 1.75515 -0.0330842)
(105.241 -0.256824 -0.0501829)
(104.787 -2.84914 -0.0321975)
(102.989 -3.57655 -0.0528596)
(101.768 -3.36725 -0.0702552)
(101.134 -3.01885 -0.0815688)
(100.792 -2.72047 -0.0886791)
(100.596 -2.49336 -0.0931437)
(100.468 -2.32097 -0.096229)
(100.38 -2.18182 -0.0995231)
(100.292 -1.88141 -0.259615)
(100.263 -1.83883 -0.258937)
(100.246 -1.80719 -0.257429)
(100.236 -1.78507 -0.255908)
(100.23 -1.76903 -0.254668)
(100.225 -1.75703 -0.253752)
(100.221 -1.74825 -0.25316)
(100.217 -1.74206 -0.252885)
(100.213 -1.73779 -0.252896)
(100.21 -1.73478 -0.253147)
(100.207 -1.73253 -0.253584)
(100.204 -1.73057 -0.25415)
(100.202 -1.72852 -0.254787)
(100.2 -1.726 -0.255456)
(100.2 -1.72267 -0.256142)
(100.2 -1.71821 -0.256873)
(100.203 -1.71226 -0.25772)
(100.21 -1.70458 -0.258809)
(100.227 -1.69542 -0.260344)
(100.004 0.0348383 0.000306153)
(100.02 0.071984 0.000526779)
(100.049 0.115221 0.000548784)
(100.095 0.168904 0.000271507)
(100.163 0.238108 -0.00046902)
(100.262 0.328701 -0.00199435)
(100.409 0.44697 -0.00485349)
(100.627 0.597361 -0.00994612)
(100.96 0.77602 -0.0187238)
(101.445 0.858875 -0.0330356)
(102.085 0.759463 -0.0546664)
(102.76 0.228746 -0.0845107)
(103.119 -0.762638 -0.118336)
(102.871 -1.59767 -0.149392)
(102.227 -1.90851 -0.180537)
(101.594 -1.91675 -0.205715)
(101.146 -1.83144 -0.222835)
(100.857 -1.7251 -0.233548)
(100.665 -1.62238 -0.2399)
(100.533 -1.52983 -0.243322)
(100.443 -1.44834 -0.244844)
(100.384 -1.37532 -0.245257)
(100.346 -1.3159 -0.244937)
(100.319 -1.26752 -0.244372)
(100.3 -1.22961 -0.243833)
(100.286 -1.2007 -0.243449)
(100.274 -1.17891 -0.243313)
(100.263 -1.16279 -0.243477)
(100.254 -1.15121 -0.243953)
(100.246 -1.14321 -0.244718)
(100.238 -1.13795 -0.245728)
(100.232 -1.13469 -0.246928)
(100.226 -1.13277 -0.24826)
(100.22 -1.13161 -0.249667)
(100.217 -1.13065 -0.251111)
(100.214 -1.12946 -0.252571)
(100.214 -1.12764 -0.254053)
(100.216 -1.12489 -0.255594)
(100.221 -1.12107 -0.257268)
(100.231 -1.11644 -0.259193)
(100.005 0.0220778 9.4443e-05)
(100.025 0.0454844 4.52035e-05)
(100.061 0.0727067 -0.00026422)
(100.117 0.106104 -0.000968416)
(100.2 0.148588 -0.002305)
(100.317 0.202594 -0.00462655)
(100.481 0.269597 -0.00850645)
(100.708 0.347098 -0.0147553)
(101.017 0.422135 -0.0244967)
(101.417 0.455358 -0.0390259)
(101.88 0.390491 -0.05954)
(102.309 0.152678 -0.0865672)
(102.53 -0.268848 -0.117726)
(102.412 -0.699899 -0.148513)
(102.023 -0.946349 -0.176813)
(101.563 -1.00796 -0.199659)
(101.184 -0.980294 -0.216261)
(100.912 -0.926003 -0.227248)
(100.719 -0.868713 -0.234073)
(100.578 -0.815298 -0.237936)
(100.476 -0.768719 -0.239744)
(100.401 -0.732209 -0.240219)
(100.348 -0.705957 -0.239961)
(100.309 -0.68801 -0.239334)
(100.281 -0.676517 -0.238602)
(100.259 -0.670051 -0.237958)
(100.243 -0.667268 -0.237532)
(100.23 -0.667066 -0.237391)
(100.22 -0.668649 -0.237542)
(100.212 -0.671422 -0.237961)
(100.205 -0.674878 -0.238597)
(100.199 -0.678614 -0.23939)
(100.195 -0.682299 -0.240272)
(100.191 -0.685706 -0.241179)
(100.189 -0.688359 -0.242095)
(100.189 -0.690238 -0.24297)
(100.191 -0.691245 -0.243794)
(100.195 -0.691293 -0.244607)
(100.202 -0.690382 -0.245507)
(100.219 -0.68851 -0.246724)
(100.006 0.00755769 -3.39991e-05)
(100.027 0.0155215 -0.000188029)
(100.067 0.0248157 -0.000701694)
(100.128 0.0360833 -0.00157118)
(100.217 0.0503665 -0.00322367)
(100.341 0.0682241 -0.00594384)
(100.511 0.0896637 -0.0103369)
(100.738 0.1132 -0.017091)
(101.028 0.133699 -0.0273116)
(101.376 0.138497 -0.0417691)
(101.748 0.107605 -0.0612179)
(102.068 0.0203582 -0.0856995)
(102.231 -0.119607 -0.113764)
(102.162 -0.264823 -0.142546)
(101.887 -0.357603 -0.168587)
(101.525 -0.38701 -0.190165)
(101.19 -0.381646 -0.206514)
(100.929 -0.365909 -0.217644)
(100.736 -0.348971 -0.22471)
(100.592 -0.333146 -0.22878)
(100.484 -0.319246 -0.230765)
(100.406 -0.307852 -0.231365)
(100.349 -0.298527 -0.231142)
(100.308 -0.290633 -0.230446)
(100.279 -0.283559 -0.229704)
(100.257 -0.277065 -0.229127)
(100.241 -0.27102 -0.228821)
(100.228 -0.265341 -0.228839)
(100.217 -0.260008 -0.229184)
(100.209 -0.255024 -0.229826)
(100.201 -0.250392 -0.23071)
(100.195 -0.246101 -0.231762)
(100.19 -0.242134 -0.232896)
(100.186 -0.238497 -0.233993)
(100.184 -0.234933 -0.235204)
(100.183 -0.23151 -0.236363)
(100.184 -0.228212 -0.237429)
(100.187 -0.225019 -0.238437)
(100.193 -0.222034 -0.239484)
(100.205 -0.219762 -0.240808)
(99.9936 0.00564373 0.00746229)
(99.9717 0.0113425 0.0157418)
(99.9313 0.0172299 0.0253663)
(99.8715 0.0233515 0.0373465)
(99.7909 0.0294494 0.0526773)
(99.6877 0.0347516 0.0725376)
(99.561 0.0375937 0.0979869)
(99.4133 0.0350511 0.130462)
(99.2537 0.0224842 0.171321)
(99.101 -0.00638755 0.220991)
(98.9873 -0.0569746 0.278844)
(98.9522 -0.127695 0.342586)
(99.02 -0.199311 0.408514)
(99.181 -0.253138 0.471277)
(99.3921 -0.279494 0.52615)
(99.6065 -0.287937 0.57129)
(99.7983 -0.286932 0.606315)
(99.9605 -0.280869 0.632279)
(100.094 -0.272448 0.650555)
(100.201 -0.263711 0.662823)
(100.285 -0.255595 0.670361)
(100.351 -0.248394 0.674754)
(100.401 -0.242141 0.67748)
(100.439 -0.237216 0.679119)
(100.469 -0.233602 0.680251)
(100.492 -0.231082 0.681451)
(100.51 -0.229561 0.682672)
(100.524 -0.228903 0.684097)
(100.534 -0.228902 0.685982)
(100.541 -0.229385 0.688301)
(100.546 -0.23023 0.690918)
(100.549 -0.231359 0.693646)
(100.551 -0.232684 0.696536)
(100.553 -0.234145 0.699455)
(100.555 -0.235699 0.702194)
(100.558 -0.237331 0.704531)
(100.562 -0.239023 0.706196)
(100.567 -0.240736 0.707163)
(100.576 -0.242478 0.707252)
(100.592 -0.244372 0.706255)
(99.9938 0.0167754 0.00730879)
(99.9724 0.0337804 0.015347)
(99.9327 0.0515561 0.0248379)
(99.8732 0.0703494 0.0366766)
(99.7921 0.0895907 0.0518715)
(99.6857 0.107269 0.0716544)
(99.5513 0.118795 0.0974159)
(99.3884 0.115565 0.130786)
(99.2029 0.0831961 0.173342)
(99.0126 0.00119536 0.226061)
(98.8567 -0.147179 0.288731)
(98.8012 -0.354568 0.358753)
(98.8879 -0.572927 0.431831)
(99.0931 -0.731195 0.500864)
(99.3469 -0.809325 0.559605)
(99.5876 -0.838202 0.606396)
(99.7928 -0.838867 0.641835)
(99.9612 -0.823873 0.667507)
(100.096 -0.801885 0.685193)
(100.202 -0.778018 0.696649)
(100.283 -0.755196 0.703506)
(100.345 -0.735566 0.707607)
(100.393 -0.719529 0.710155)
(100.429 -0.706839 0.711727)
(100.456 -0.696035 0.712777)
(100.479 -0.686457 0.713751)
(100.496 -0.678445 0.714923)
(100.51 -0.672247 0.71648)
(100.52 -0.667735 0.718509)
(100.527 -0.664738 0.720966)
(100.533 -0.66314 0.72375)
(100.536 -0.662834 0.72675)
(100.539 -0.663658 0.729885)
(100.54 -0.665491 0.733024)
(100.542 -0.668229 0.735987)
(100.544 -0.671767 0.738574)
(100.547 -0.676021 0.740574)
(100.551 -0.680842 0.741814)
(100.558 -0.686059 0.74211)
(100.571 -0.691472 0.741328)
(99.9941 0.0274422 0.00696516)
(99.9738 0.0554688 0.0146222)
(99.9357 0.0853244 0.0237197)
(99.8778 0.117829 0.0351367)
(99.7965 0.152744 0.0499311)
(99.6859 0.187857 0.0694685)
(99.5387 0.217092 0.0954546)
(99.3476 0.227186 0.129968)
(99.11 0.192095 0.175302)
(98.8424 0.0643727 0.233491)
(98.6029 -0.261991 0.305317)
(98.4972 -0.71272 0.388102)
(98.6181 -1.11972 0.472968)
(98.9138 -1.35283 0.551705)
(99.2454 -1.44849 0.615876)
(99.5326 -1.47809 0.664848)
(99.7647 -1.46471 0.700728)
(99.9463 -1.42987 0.725747)
(100.085 -1.38737 0.742009)
(100.188 -1.34336 0.751509)
(100.265 -1.30236 0.756001)
(100.322 -1.26415 0.757906)
(100.364 -1.23953 0.75892)
(100.397 -1.22668 0.759705)
(100.425 -1.21811 0.76036)
(100.448 -1.21067 0.761016)
(100.465 -1.20428 0.761897)
(100.478 -1.19917 0.763149)
(100.487 -1.19528 0.764805)
(100.493 -1.19258 0.766835)
(100.497 -1.1911 0.769176)
(100.498 -1.1909 0.771759)
(100.498 -1.19196 0.77451)
(100.495 -1.19423 0.777322)
(100.493 -1.19766 0.780047)
(100.489 -1.20218 0.782487)
(100.487 -1.20773 0.784405)
(100.485 -1.21416 0.785552)
(100.486 -1.22117 0.785733)
(100.492 -1.22795 0.784978)
(99.9948 0.0371742 0.00642884)
(99.9766 0.0755169 0.0134954)
(99.942 0.117296 0.021915)
(99.8883 0.16449 0.0325493)
(99.8102 0.218264 0.046479)
(99.6985 0.278123 0.0651579)
(99.5395 0.339931 0.090564)
(99.313 0.39137 0.125301)
(98.9908 0.403224 0.172695)
(98.51 0.205296 0.236794)
(98.2565 0.0228644 0.269367)
(97.9219 -0.633441 0.34596)
(97.9906 -1.42732 0.429207)
(98.4607 -1.9418 0.508808)
(98.9433 -2.096 0.572654)
(99.3191 -2.13635 0.619407)
(99.6214 -2.10755 0.653278)
(99.8485 -2.04162 0.676805)
(100.014 -1.96574 0.691826)
(100.135 -1.89425 0.700473)
(100.279 -1.91379 0.824433)
(100.32 -1.83568 0.82173)
(100.337 -1.77865 0.817214)
(100.351 -1.7431 0.813697)
(100.368 -1.7192 0.811974)
(100.382 -1.70299 0.811835)
(100.39 -1.69258 0.812958)
(100.392 -1.68623 0.815037)
(100.389 -1.68266 0.817768)
(100.38 -1.6812 0.820886)
(100.367 -1.68155 0.824197)
(100.35 -1.68355 0.827564)
(100.328 -1.68714 0.830874)
(100.303 -1.69223 0.834001)
(100.276 -1.69878 0.836774)
(100.246 -1.70673 0.838964)
(100.216 -1.71608 0.840259)
(100.186 -1.72679 0.8403)
(100.159 -1.7386 0.838746)
(100.13 -1.74996 0.835443)
(99.9958 0.0452153 0.0056952)
(99.9811 0.0923447 0.0119497)
(99.9528 0.144925 0.0193825)
(99.9078 0.206617 0.0287735)
(99.8397 0.281095 0.0411323)
(99.7376 0.371925 0.0578422)
(99.5823 0.481712 0.0808565)
(99.342 0.608892 0.112855)
(98.9135 0.739826 0.157425)
(98.5755 0.740551 0.182929)
(97.7817 0.349712 0.248343)
(96.996 -0.7095 0.335232)
(97.0957 -2.33914 0.438137)
(98.199 -2.93954 0.533478)
(98.8858 -2.9786 0.599432)
(99.3294 -2.95685 0.639764)
(99.6793 -2.85517 0.669093)
(99.9145 -2.72751 0.690546)
(100.067 -2.60262 0.704389)
(100.161 -2.49646 0.712202)
(100.225 -2.42661 0.717269)
(100.141 -2.53238 0.813925)
(100.028 -2.5137 0.793741)
(99.9223 -2.4822 0.775402)
(99.8308 -2.44706 0.76056)
(99.7447 -2.41594 0.749451)
(99.6608 -2.38953 0.741591)
(99.5789 -2.36663 0.736224)
(99.4983 -2.34659 0.732558)
(99.4181 -2.32929 0.729892)
(99.3376 -2.31476 0.727696)
(99.2566 -2.30308 0.725609)
(99.1753 -2.29428 0.723386)
(99.0938 -2.28833 0.720847)
(99.0126 -2.28517 0.71781)
(98.9324 -2.28472 0.714041)
(98.8538 -2.28699 0.709174)
(98.7783 -2.2922 0.702734)
(98.7087 -2.30114 0.694194)
(98.6395 -2.3158 0.68344)
(99.9973 0.0506857 0.00475457)
(99.9877 0.103985 0.00997786)
(99.9688 0.164695 0.016119)
(99.9379 0.238284 0.0237888)
(99.8897 0.331407 0.0337825)
(99.8139 0.453095 0.0471707)
(99.6916 0.616526 0.0654224)
(99.4865 0.84124 0.0905065)
(99.076 1.15744 0.124935)
(98.6718 1.31336 0.145647)
(97.7288 1.44562 0.174654)
(95.6463 0.669798 0.233409)
(94.4671 -3.455 0.344847)
(98.2672 -4.72183 0.463899)
(98.7349 -3.96465 0.530124)
(99.2843 -3.92439 0.55533)
(99.661 -3.7042 0.595573)
(99.8282 -3.44294 0.638152)
(99.8807 -3.19456 0.662129)
(99.8572 -2.96461 0.661788)
(98.7728 -2.74405 0.587064)
(95.2253 -2.41732 0.385107)
(95.3031 -2.48798 0.355218)
(95.3873 -2.52586 0.337384)
(95.452 -2.54729 0.327189)
(95.5026 -2.56177 0.32248)
(95.5472 -2.57062 0.321508)
(95.589 -2.57398 0.322565)
(95.6287 -2.5729 0.324226)
(95.6671 -2.56892 0.325467)
(95.7049 -2.56351 0.325629)
(95.7427 -2.55789 0.324374)
(95.7809 -2.55301 0.321521)
(95.8197 -2.54953 0.31704)
(95.859 -2.54784 0.310947)
(95.8987 -2.54817 0.303197)
(95.9385 -2.55065 0.293595)
(95.9784 -2.55558 0.281704)
(96.0177 -2.56391 0.266736)
(96.0654 -2.57883 0.247439)
(99.9991 0.0526376 0.00383678)
(99.9957 0.108368 0.0078398)
(99.989 0.172801 0.0124045)
(99.9774 0.252636 0.0179382)
(99.9584 0.356665 0.0248858)
(99.9271 0.498102 0.0337772)
(99.8753 0.698364 0.045209)
(99.7881 0.99502 0.0596205)
(99.6171 1.4597 0.0767393)
(99.351 1.85141 0.0867651)
(98.6359 2.77028 0.0967934)
(95.5138 5.72899 0.116398)
(77.2934 -4.41617 0.220763)
(61.1666 -6.13338 -0.532221)
(79.843 -5.94493 -0.812013)
(81.9564 -4.75329 -0.783298)
(82.5968 -3.86109 -0.670453)
(82.9588 -3.19801 -0.570866)
(83.7525 -2.80293 -0.503011)
(92.2072 -3.59719 -0.550316)
(96.1855 -3.34522 -0.656703)
(96.3201 -3.2204 -0.633372)
(96.4653 -3.13202 -0.612711)
(96.5816 -3.06692 -0.595572)
(96.6764 -3.01509 -0.581094)
(96.7593 -2.97187 -0.567945)
(96.8346 -2.93503 -0.555428)
(96.9042 -2.90336 -0.543418)
(96.9704 -2.87608 -0.532092)
(97.0351 -2.85266 -0.521774)
(97.1002 -2.83264 -0.512817)
(97.1668 -2.81558 -0.505501)
(97.2355 -2.801 -0.500011)
(97.3062 -2.78844 -0.496436)
(97.3787 -2.77743 -0.494829)
(97.4523 -2.76749 -0.495341)
(97.5262 -2.75803 -0.498294)
(97.599 -2.74814 -0.50434)
(97.6845 -2.73582 -0.51444)
(100.001 0.0505433 0.00278873)
(100.005 0.104215 0.0055332)
(100.011 0.166732 0.00846132)
(100.021 0.244915 0.0117105)
(100.035 0.347756 0.0153322)
(100.056 0.488544 0.0192464)
(100.09 0.688163 0.0230359)
(100.15 0.981549 0.0255039)
(100.289 1.42965 0.0236958)
(100.336 1.83237 0.0210333)
(100.605 2.80099 0.00768812)
(102.41 5.29461 -0.034578)
(110.995 3.89896 -0.105216)
(108.972 -6.64112 -0.276869)
(102.779 -6.80128 -0.380486)
(101.14 -5.02933 -0.459792)
(100.696 -4.04168 -0.513461)
(100.529 -3.48306 -0.545748)
(100.45 -3.14385 -0.561614)
(100.386 -2.93581 -0.567167)
(100.288 -2.73493 -0.626948)
(100.316 -2.31845 -0.764842)
(100.301 -2.20676 -0.756129)
(100.288 -2.14128 -0.744578)
(100.275 -2.10368 -0.733546)
(100.261 -2.08006 -0.724044)
(100.247 -2.06506 -0.716003)
(100.234 -2.0566 -0.70934)
(100.223 -2.05318 -0.704048)
(100.214 -2.05354 -0.700097)
(100.207 -2.05665 -0.69744)
(100.201 -2.06168 -0.696033)
(100.198 -2.06793 -0.69583)
(100.196 -2.07472 -0.696762)
(100.195 -2.08143 -0.698822)
(100.196 -2.08745 -0.702044)
(100.198 -2.09215 -0.70657)
(100.201 -2.09473 -0.712656)
(100.206 -2.09392 -0.720627)
(100.22 -2.08726 -0.730463)
(100.003 0.0443025 0.0016475)
(100.013 0.0913978 0.00325285)
(100.032 0.146276 0.00467776)
(100.061 0.214815 0.0057783)
(100.106 0.304384 0.00627538)
(100.172 0.4249 0.00557883)
(100.273 0.590205 0.00251318)
(100.435 0.819294 -0.005141)
(100.743 1.13599 -0.0215406)
(100.964 1.3702 -0.0332552)
(101.799 1.81639 -0.0740529)
(103.392 1.71278 -0.151207)
(105.152 -0.275332 -0.264284)
(104.704 -2.83332 -0.387188)
(102.944 -3.57191 -0.481805)
(101.743 -3.36413 -0.548268)
(101.121 -3.01874 -0.59253)
(100.789 -2.7232 -0.618965)
(100.599 -2.49789 -0.633239)
(100.475 -2.32638 -0.640091)
(100.388 -2.18309 -0.64278)
(100.298 -1.86469 -0.780822)
(100.271 -1.82044 -0.773091)
(100.254 -1.78894 -0.764482)
(100.244 -1.76772 -0.756384)
(100.236 -1.75272 -0.749084)
(100.23 -1.74169 -0.742578)
(100.226 -1.73371 -0.736882)
(100.221 -1.7281 -0.732036)
(100.218 -1.72415 -0.728061)
(100.214 -1.72124 -0.72497)
(100.211 -1.71888 -0.722761)
(100.209 -1.71662 -0.721416)
(100.207 -1.71409 -0.720881)
(100.206 -1.71091 -0.721147)
(100.205 -1.70676 -0.722228)
(100.206 -1.70131 -0.724209)
(100.208 -1.69419 -0.727263)
(100.214 -1.68514 -0.731629)
(100.229 -1.67459 -0.737512)
(100.004 0.0343756 0.000853203)
(100.02 0.0709169 0.00147574)
(100.049 0.113372 0.00158909)
(100.094 0.166037 0.000889857)
(100.161 0.233776 -0.00114894)
(100.258 0.322344 -0.00544823)
(100.4 0.437874 -0.0135662)
(100.613 0.584703 -0.0280838)
(100.937 0.758998 -0.0531791)
(101.409 0.840718 -0.094693)
(102.032 0.74469 -0.158615)
(102.693 0.226588 -0.249153)
(103.044 -0.739124 -0.358337)
(102.802 -1.55873 -0.474061)
(102.173 -1.86684 -0.571805)
(101.557 -1.87459 -0.64282)
(101.12 -1.79038 -0.689544)
(100.838 -1.68617 -0.718088)
(100.652 -1.5855 -0.734269)
(100.522 -1.49441 -0.742064)
(100.434 -1.41376 -0.744)
(100.378 -1.34031 -0.741653)
(100.341 -1.2812 -0.737903)
(100.315 -1.23356 -0.733927)
(100.297 -1.19629 -0.729972)
(100.285 -1.16787 -0.726288)
(100.274 -1.14652 -0.723191)
(100.265 -1.13083 -0.720882)
(100.258 -1.1197 -0.719429)
(100.251 -1.11218 -0.718814)
(100.244 -1.1074 -0.718971)
(100.238 -1.1046 -0.719804)
(100.232 -1.10313 -0.721211)
(100.227 -1.1024 -0.723077)
(100.223 -1.10187 -0.725341)
(100.22 -1.10104 -0.727975)
(100.218 -1.09951 -0.731015)
(100.219 -1.0969 -0.734564)
(100.222 -1.09307 -0.738768)
(100.23 -1.08827 -0.743675)
(100.005 0.0217363 0.000235823)
(100.024 0.0447814 0.000125373)
(100.06 0.0715019 -0.000679107)
(100.116 0.104331 -0.00260226)
(100.196 0.145901 -0.0063608)
(100.311 0.198734 -0.0129771)
(100.471 0.264281 -0.0240808)
(100.692 0.340177 -0.0420659)
(100.993 0.413696 -0.070231)
(101.382 0.446666 -0.112587)
(101.833 0.383826 -0.172998)
(102.252 0.151489 -0.253055)
(102.468 -0.26199 -0.347706)
(102.355 -0.683971 -0.444893)
(101.974 -0.923329 -0.531131)
(101.526 -0.981951 -0.597575)
(101.157 -0.953713 -0.643953)
(100.89 -0.900048 -0.674251)
(100.701 -0.843688 -0.692876)
(100.562 -0.791144 -0.703165)
(100.461 -0.745249 -0.707539)
(100.388 -0.709107 -0.707918)
(100.336 -0.683103 -0.706237)
(100.299 -0.665158 -0.703522)
(100.273 -0.653595 -0.700336)
(100.254 -0.647065 -0.697143)
(100.241 -0.644253 -0.694324)
(100.231 -0.644054 -0.69211)
(100.223 -0.645673 -0.690587)
(100.217 -0.648507 -0.689747)
(100.213 -0.652035 -0.689529)
(100.209 -0.655836 -0.689837)
(100.205 -0.659543 -0.69056)
(100.202 -0.662868 -0.691591)
(100.2 -0.665519 -0.692893)
(100.199 -0.667325 -0.694394)
(100.199 -0.668135 -0.696092)
(100.201 -0.667867 -0.698079)
(100.207 -0.666534 -0.700531)
(100.219 -0.664269 -0.703727)
(100.006 0.00742827 -7.32231e-05)
(100.027 0.015289 -0.000541443)
(100.066 0.0243764 -0.00187134)
(100.126 0.0354723 -0.00437076)
(100.213 0.0493987 -0.0090254)
(100.334 0.0668373 -0.0167335)
(100.5 0.0878079 -0.029124)
(100.721 0.110882 -0.0484223)
(101.004 0.130929 -0.0776292)
(101.343 0.135801 -0.119559)
(101.706 0.105975 -0.176677)
(102.017 0.0213207 -0.249192)
(102.177 -0.114814 -0.33295)
(102.111 -0.256296 -0.419045)
(101.842 -0.346062 -0.49715)
(101.487 -0.374342 -0.560239)
(101.159 -0.368868 -0.606233)
(100.902 -0.353311 -0.637245)
(100.712 -0.33663 -0.656855)
(100.569 -0.321013 -0.668091)
(100.463 -0.307278 -0.673369)
(100.386 -0.295992 -0.674615)
(100.332 -0.286682 -0.673466)
(100.294 -0.278699 -0.671088)
(100.268 -0.271598 -0.668417)
(100.25 -0.265161 -0.665943)
(100.238 -0.259232 -0.663961)
(100.229 -0.253716 -0.662658)
(100.222 -0.248586 -0.66211)
(100.216 -0.243844 -0.662298)
(100.211 -0.23948 -0.663136)
(100.207 -0.235472 -0.664497)
(100.203 -0.231784 -0.666228)
(100.199 -0.228363 -0.668145)
(100.196 -0.225115 -0.670381)
(100.194 -0.221994 -0.672707)
(100.193 -0.218951 -0.675063)
(100.195 -0.215961 -0.677526)
(100.198 -0.213122 -0.680253)
(100.205 -0.210951 -0.683487)
(99.9939 0.00553503 0.0118617)
(99.9733 0.011111 0.0248556)
(99.9352 0.0168876 0.0401752)
(99.8791 0.0228996 0.0592243)
(99.8037 0.02891 0.0835667)
(99.7072 0.0342098 0.115088)
(99.589 0.0372693 0.155843)
(99.4515 0.0353303 0.208151)
(99.3031 0.0240008 0.274151)
(99.1616 -0.00260313 0.354908)
(99.0569 -0.0498095 0.44969)
(99.0259 -0.115522 0.554573)
(99.0917 -0.182293 0.662183)
(99.2452 -0.232031 0.764129)
(99.4459 -0.255883 0.852875)
(99.65 -0.263162 0.925523)
(99.8333 -0.261809 0.982174)
(99.9893 -0.255872 1.02458)
(100.118 -0.247807 1.05499)
(100.222 -0.239559 1.07582)
(100.304 -0.231905 1.08933)
(100.367 -0.224986 1.09787)
(100.415 -0.218925 1.10357)
(100.45 -0.214175 1.1078)
(100.477 -0.210769 1.11128)
(100.497 -0.208436 1.11437)
(100.511 -0.20698 1.1173)
(100.521 -0.206266 1.12036)
(100.527 -0.206139 1.12375)
(100.531 -0.206448 1.12754)
(100.534 -0.207076 1.1317)
(100.535 -0.207942 1.13611)
(100.536 -0.208971 1.14069)
(100.538 -0.210102 1.14526)
(100.54 -0.211279 1.14957)
(100.543 -0.212486 1.15335)
(100.547 -0.213712 1.1563)
(100.554 -0.214948 1.15811)
(100.563 -0.216222 1.15844)
(100.579 -0.217662 1.1568)
(99.9941 0.0164404 0.0115968)
(99.974 0.033078 0.0243044)
(99.9366 0.0504819 0.0393445)
(99.8809 0.0688906 0.0581263)
(99.8049 0.0877925 0.0822768)
(99.7056 0.105339 0.113833)
(99.5803 0.117268 0.15518)
(99.4287 0.115459 0.2091)
(99.256 0.0862649 0.278403)
(99.0791 0.0102356 0.365152)