/*--------------------------------*- C++ -*----------------------------------*\
| =========                 |                                                 |
| \\      /  F ield         | OpenFOAM: The Open Source CFD Toolbox           |
|  \\    /   O peration     | Version:  2306                                  |
|   \\  /    A nd           | Website:  www.openfoam.com                      |
|    \\/     M anipulation  |                                                 |
\*---------------------------------------------------------------------------*/
FoamFile
{
    version     2.0;
    format      ascii;
    arch        "LSB;label=32;scalar=64";
    class       volVectorField;
    location    "0.9";
    object      Force;
}
// * * * * * * * * * * * * * * * * * * * * * * * * * * * * * * * * * * * * * //

dimensions      [1 1 -2 0 0 0 0];

internalField   uniform (0 0 0);

boundaryField
{
    walls
    {
        type            calculated;
        value           uniform (0 0 0);
    }
    inlet
    {
        type            calculated;
        value           uniform (0 0 0);
    }
    outlet
    {
        type            calculated;
        value           uniform (0 0 0);
    }
    NASA
    {
        type            calculated;
        value           nonuniform List<vector> 
14179
(
(-0.0148327 -0.136359 1.86071e-06)
(-0.0133247 -0.110094 1.00018e-06)
(-0.0693889 -0.561082 0.000177636)
(-0.100323 -0.806874 0.000499163)
(-0.0682912 -0.552652 9.44113e-05)
(-0.109283 -0.878803 0.000593005)
(0.216976 0.94203 -7.93513e-05)
(0.086836 0.43593 -4.19577e-05)
(0.642948 3.1521 0.0045754)
(0.0933137 0.468469 -4.59247e-05)
(-0.00210874 -0.0174483 3.83189e-06)
(-0.0177851 -0.145418 0.000131041)
(0.130762 0.652975 -0.000369336)
(-0.0354419 -0.322337 0.000410143)
(0.0619808 0.309356 -0.000158716)
(1.37819 0.929652 0.00280798)
(1.38975 0.920874 -0.000174351)
(0.0205816 0.115109 -1.26938e-05)
(0.16641 0.987525 -9.77793e-05)
(1.28628 0.852575 6.51546e-05)
(-0.0173608 -0.242827 -1.66861e-05)
(-0.0217516 -0.202176 -0.00014735)
(-0.0198614 -0.275666 -0.000265874)
(-0.00903594 -0.065735 6.25911e-07)
(-0.0135252 -0.111807 7.67918e-06)
(-0.00976592 -0.0710424 9.09019e-06)
(-0.0129646 -0.106781 0.000164292)
(-0.0151278 -0.108424 0.000172647)
(-0.0133404 -0.121842 0.000189703)
(-0.0156708 -0.215051 0.00336181)
(0.0463246 0.202281 3.72484e-05)
(0.0519525 0.244922 1.00416e-05)
(0.0558343 0.263229 -5.18032e-05)
(0.0457073 0.199094 -1.50984e-05)
(0.0763216 0.279961 2.16656e-06)
(0.074514 0.273327 -2.41361e-05)
(0.0385041 0.139685 2.70351e-06)
(0.0425045 0.154239 -7.05588e-06)
(-0.00179885 -0.00870989 0.000128977)
(-0.0131034 -0.063756 0.000558665)
(0.169521 0.619053 -8.7714e-05)
(0.0991691 0.357503 0.000294323)
(0.0919169 0.461246 -9.49294e-06)
(-0.00632795 -0.0443945 2.09562e-06)
(-0.00575036 -0.0403514 -6.83778e-06)
(0.144114 0.723655 -1.03495e-05)
(-0.00977306 -0.067615 0.000142002)
(0.0972918 0.485643 0.000133703)
(0.0904281 0.451781 1.3724e-05)
(0.106641 0.435666 -0.000304093)
(0.083829 0.311611 -1.37979e-05)
(0.0834642 0.310237 -1.87004e-05)
(-0.0640471 1.56471 -8.69704e-05)
(1.38773 0.922564 -0.000709234)
(-0.057986 1.42509 8.58925e-05)
(-0.00260257 1.30396 -4.45149e-05)
(0.0683446 1.03416 4.79208e-05)
(0.068229 1.03026 -9.68214e-05)
(-0.00230932 1.11247 2.68771e-06)
(0.0978662 0.384658 -3.30099e-05)
(0.167107 0.990666 -3.96348e-05)
(0.00810449 0.0295115 7.93723e-05)
(-0.0229072 0.568859 7.69109e-05)
(0.930646 0.634951 0.0787176)
(-0.0007345 0.535032 -0.000222899)
(0.0271465 0.412557 -4.80617e-05)
(0.127931 0.748691 0.00813644)
(-0.0149275 -0.149305 3.96706e-06)
(-0.0147736 -0.135899 2.62347e-06)
(-0.0986684 -0.79368 0.000488579)
(-0.0118074 -0.0935737 1.52999e-06)
(-0.0133032 -0.109922 2.0508e-06)
(1.3308 0.881058 -0.00058427)
(1.28385 0.85024 -0.000348589)
(0.346552 2.05439 -0.00162373)
(0.261104 1.54241 -0.000922377)
(-0.110671 -0.891099 -0.000884271)
(-0.0558264 -0.347475 0.000265495)
(-0.0550279 -0.344622 0.000245152)
(-0.0417405 -0.244936 0.000210469)
(0.15684 0.676738 -0.000485236)
(0.175634 0.759297 -0.000522267)
(0.7618 1.30793 -5.83299e-05)
(0.762173 1.30656 -0.000334947)
(0.0866344 0.434839 -2.39635e-05)
(0.0790227 0.379667 -2.72578e-05)
(-0.000693992 -0.00577765 -8.01869e-07)
(0.00100825 0.00460973 7.63944e-08)
(0.00103462 0.00475746 -1.30751e-06)
(-0.000680556 -0.00568685 2.41758e-07)
(0.0929301 0.466553 -1.18464e-05)
(0.0906744 0.467726 -3.49471e-05)
(-0.0200428 -0.163806 0.000141541)
(-0.0134264 -0.0961635 9.97008e-05)
(-0.020253 -0.14463 0.000124276)
(-0.0122451 -0.0844052 9.48314e-05)
(-0.0180046 -0.123476 6.4023e-05)
(0.0858152 0.428163 -0.000329815)
(-0.0200401 -0.18231 0.000140972)
(-0.0246296 -0.338804 0.000574057)
(-0.0208577 -0.293018 -0.000355285)
(0.0804849 0.401934 -0.000280576)
(1.37519 0.92353 -0.00270716)
(0.0985038 0.580727 -3.37734e-05)
(0.105593 0.590626 -2.11941e-05)
(0.105646 0.590653 -2.9944e-05)
(0.172048 1.19767 -3.23763e-05)
(0.108076 0.641031 -2.75261e-05)
(0.165968 0.984581 -4.52297e-05)
(0.0198254 0.018718 2.02695e-05)
(0.339216 -0.125 0.00340647)
(0.348847 -0.138299 0.00164779)
(0.00762745 0.00727797 -1.80292e-05)
(-0.00620117 -0.0267073 9.54036e-05)
(0.0224198 0.0826619 8.61136e-08)
(0.003038 0.0106091 6.61655e-05)
(0.0227557 0.0916123 9.4181e-05)
(-0.00910184 -0.0406551 4.97842e-05)
(-0.00131633 -0.00790306 8.65348e-05)
(0.00476966 0.0199788 3.40873e-05)
(-0.0179067 -0.0866207 6.8844e-05)
(-0.00106109 0.731879 -0.000371314)
(0.0408087 0.60944 -0.000358478)
(-0.00154799 0.980194 -0.000540873)
(0.0318847 0.482729 -0.00060824)
(-0.0347371 0.868589 -0.000652102)
(1.11112 0.747421 -0.000290522)
(-0.0470653 1.16454 -0.000627268)
(0.110113 0.651553 -0.00139941)
(0.156808 0.614008 -0.000643292)
(0.117861 0.460898 -0.000231987)
(0.108615 0.396307 -0.000175281)
(0.153727 0.561599 -0.000272226)
(0.0632099 0.228054 -9.81729e-05)
(0.0864312 0.312359 -0.000217003)
(-0.0134349 -0.151316 -4.45412e-06)
(-0.0172437 -0.24087 1.39535e-06)
(-0.0108678 -0.0836477 1.51097e-06)
(-0.0088832 -0.0646254 5.15421e-07)
(0.000300993 0.000206268 0.536947)
(-0.0129894 -0.102205 0.000161315)
(0.000274631 0.000199164 0.510525)
(-0.0144395 -0.110022 0.000180517)
(0.000561442 0.00037372 0.581217)
(-0.0130674 -0.130453 0.00027089)
(0.000785972 0.000828151 0.582336)
(-0.0121757 -0.140179 0.00108045)
(0.0517361 0.243895 -1.27743e-05)
(0.03865 0.175762 -3.22644e-06)
(0.0389535 0.17716 -9.12769e-06)
(0.0459248 0.199998 -6.42471e-06)
(0.0451638 0.198926 -5.51453e-06)
(0.045394 0.199946 -9.12661e-06)
(0.0759989 0.278638 1.49184e-06)
(0.0235375 0.11704 -6.55505e-06)
(0.0209815 0.106419 -5.61553e-06)
(0.0399288 0.144798 9.47337e-06)
(0.0328003 0.11539 1.45999e-06)
(-0.00628139 -0.0287855 0.000194319)
(-0.00537922 -0.025646 0.000225853)
(0.000244249 0.000134694 0.323508)
(0.000250747 0.000113537 0.3169)
(0.00024395 0.000108839 0.312959)
(0.000281093 0.000132089 0.359824)
(0.0936853 0.31922 0.000504931)
(0.159821 0.558805 0.00421048)
(-4.17822e-05 0.000215701 0.339427)
(0.000181941 -0.000161256 0.307041)
(0.000120089 6.00651e-05 0.109026)
(0.0817966 0.287146 0.000259637)
(0.284434 0.660744 -1.49598e-07)
(0.16654 0.587107 6.62889e-05)
(0.164851 0.581186 -1.46485e-05)
(0.0747958 0.349339 -2.40441e-05)
(0.0755533 0.352943 -2.83405e-05)
(0.123039 0.587751 -3.97209e-05)
(0.076474 0.340615 -3.42704e-05)
(0.0780844 0.354441 -2.26218e-05)
(0.0795486 0.361061 -3.31609e-05)
(0.0755261 0.336455 -1.80919e-05)
(-0.00535081 -0.0373594 -4.95418e-07)
(-0.00625237 -0.0438675 -7.88812e-07)
(0.147724 0.782669 -3.6326e-05)
(0.271144 0.467598 0.0117024)
(0.000551142 0.00216643 0.871535)
(0.000350118 0.000909689 0.415941)
(0.0497153 0.144617 0.000205071)
(-0.0118359 -0.0738367 0.000204384)
(-0.0118848 -0.0750181 0.000348504)
(0.00063464 0.000849874 0.682701)
(0.000186833 -0.000138292 0.312278)
(0.0964048 0.4948 0.00111917)
(0.000324121 -0.00025355 0.376173)
(0.140268 0.737195 0.00563354)
(0.000376341 0.000257975 0.349198)
(0.000233465 0.000116355 0.331534)
(-0.000524675 -0.000241992 0.354726)
(6.85262e-05 0.000147597 0.113027)
(0.0806087 0.385128 -1.67781e-05)
(0.103251 0.479663 0.0010156)
(0.000344718 -7.10523e-05 0.206987)
(9.3431e-05 0.000254859 0.108364)
(0.169558 0.71255 0.00214517)
(0.0838473 0.311667 -1.0942e-05)
(0.0798008 0.305472 -1.81039e-05)
(0.0950121 0.387302 -1.95711e-05)
(0.066735 0.268772 -5.10088e-06)
(-0.87262 2.78981 -0.0214285)
(-0.0598258 1.4659 -4.58463e-05)
(-0.188088 1.75812 0.000760056)
(0.0681372 1.02899 -5.13188e-05)
(0.0495542 1.06055 -3.93813e-05)
(-0.00234332 1.16257 -7.74373e-06)
(0.0267571 1.01198 -2.43587e-05)
(0.108106 1.18688 -2.09938e-05)
(0.137827 1.78016 -5.79167e-05)
(0.135923 1.75502 -3.36377e-05)
(0.109552 1.20323 -5.7531e-05)
(0.126538 1.29289 -4.14253e-05)
(0.140696 1.30941 1.22176e-05)
(0.140252 1.30558 -7.08539e-05)
(0.127198 1.29929 7.58098e-06)
(0.0698882 0.289691 -2.78491e-05)
(0.0623273 0.247401 -2.39412e-05)
(0.0969247 0.380948 -2.93835e-05)
(0.107755 0.729811 -4.83615e-05)
(0.114955 0.723979 -2.9521e-05)
(-0.000652369 -0.000692937 0.571948)
(0.000503137 0.00145201 0.901862)
(0.00156987 0.005379 0.000133555)
(-1.91923e-05 0.00201633 0.746)
(0.0027346 0.00958032 0.000133318)
(0.000189017 0.00958123 0.274703)
(-0.0609563 0.585123 -0.000491702)
(0.00709488 -0.0046489 1.75375)
(0.000206933 0.000173297 0.305115)
(0.0142257 0.519769 -0.000270007)
(0.000603281 -0.000201257 0.246057)
(0.0233726 0.488993 -0.000115144)
(0.0617205 0.530967 -0.000263016)
(0.0614579 0.521147 -0.000227682)
(0.000254493 0.000150194 0.245528)
(0.000277595 0.000162806 0.270066)
(0.0578558 0.533725 -0.000165308)
(0.0525749 0.530329 0.000120689)
(0.0475485 0.520468 0.00144436)
(1.76788e-05 -0.000979095 0.22471)
(-0.0193307 -0.106107 0.00106137)
(-9.73865e-05 0.000185197 0.505962)
(0.0919233 0.511129 0.000162763)
(0.000240715 0.000106495 0.322647)
(0.000244165 0.000108358 0.324124)
(0.477594 -0.190269 -0.00396897)
(0.226996 0.214631 0.00248344)
(0.00016873 1.66313e-05 0.0810426)
(-0.0531321 -0.522761 0.000253314)
(-0.0700208 -0.565764 0.000279428)
(-0.0555872 -0.546266 0.000303355)
(-0.0702375 -0.567475 0.000284074)
(-0.0751354 -0.606288 0.00034293)
(-0.058812 -0.57735 0.000333354)
(-0.0825642 -0.665348 0.000391616)
(0.178107 0.770848 -0.000540777)
(0.448057 2.19399 -0.00136604)
(0.181503 0.785985 -0.000547182)
(0.427556 2.09301 -0.00131396)
(-0.068477 -0.554025 0.00010733)
(-0.041487 -0.258802 0.00017816)
(-0.10458 -0.840802 0.000528718)
(-0.0471939 -0.293947 0.000204863)
(1.38535 0.917904 -0.000286407)
(1.38766 0.919468 -0.000157238)
(0.229377 0.995995 -0.00010523)
(0.649058 3.18511 -0.000478786)
(0.584148 2.86599 -0.000257754)
(0.213321 0.926228 -0.000143906)
(0.41157 2.43989 -0.000268468)
(0.433446 2.56955 -0.000464496)
(-0.0028615 -0.0209789 5.07214e-06)
(-0.00229527 -0.0181006 3.26249e-06)
(0.0202709 0.114412 -2.12691e-05)
(0.0208065 0.116948 -1.48577e-05)
(0.0512834 0.222653 -1.79649e-05)
(0.0377438 0.171524 -1.29432e-05)
(0.0613576 0.267134 -5.9773e-05)
(0.0295577 0.133418 2.41549e-05)
(-0.10845 -0.872704 0.000602635)
(-0.0689044 -0.500732 0.000341081)
(0.0192855 0.091021 6.79468e-05)
(-0.00994024 -0.0554073 9.75016e-05)
(0.0633227 0.2309 -0.000170623)
(0.0713443 0.260116 -0.000168619)
(0.0343967 0.123986 -9.33228e-05)
(0.0398548 0.143654 -9.34135e-05)
(0.288895 1.3069 -0.000133677)
(0.1787 0.775117 7.04171e-06)
(0.321862 1.52176 -0.000204729)
(0.133558 0.670073 -1.62724e-05)
(-0.0193656 -0.16294 0.000163263)
(-0.0448928 -0.332563 0.000292236)
(-0.0072734 -0.0530921 -1.81457e-05)
(-0.00113148 -0.0120997 5.10584e-06)
(-0.0200981 -0.137342 1.58147e-05)
(-0.0266666 -0.185816 6.96349e-05)
(0.0957538 0.391495 0.000173037)
(0.0830953 0.308872 -3.86642e-05)
(0.0833082 0.309662 -2.58742e-05)
(0.107015 0.438995 -0.000624231)
(0.163002 0.715898 -0.00011743)
(0.139577 0.643138 4.8851e-05)
(0.170399 0.748928 -8.60925e-05)
(0.178534 0.832494 4.97829e-05)
(-0.00280126 1.38272 -3.11541e-05)
(0.0733966 1.10483 -0.000169105)
(-0.00304505 1.48305 -0.000189803)
(0.0685361 1.03448 -0.000114557)
(-0.0660409 1.61468 -6.28051e-05)
(1.38884 0.921599 -0.000358622)
(-0.0681523 1.6677 -0.000212315)
(0.487073 4.17569 -0.00144699)
(0.0911808 0.358306 -6.22639e-05)
(0.0857639 0.336898 -7.59621e-05)
(0.0730021 0.267582 -5.79931e-05)
(0.0744449 0.273006 -5.09208e-05)
(0.0551801 0.289133 -6.39362e-05)
(0.180078 0.888719 -0.000958154)
(0.0199096 0.110499 -4.73931e-05)
(0.0453602 0.243238 -2.63625e-05)
(0.788137 4.93003 0.0031131)
(0.35734 2.38686 0.000795977)
(0.0399151 0.14471 -3.33878e-05)
(0.0432903 0.157057 -2.53749e-05)
(1.26798 0.842389 0.00111284)
(0.0903659 0.625635 -0.000422999)
(0.25304 0.237352 -1.38962e-05)
(0.499566 -0.207142 -5.70329e-05)
(0.23986 0.22569 -9.39465e-05)
(0.518144 -0.215213 -0.000325294)
(0.0758982 0.278376 7.77241e-06)
(0.0382049 0.134436 -2.59456e-06)
(0.0417349 0.15141 1.69352e-05)
(0.284311 0.660447 -1.32143e-05)
(0.27386 0.803854 -3.81699e-05)
(0.000451575 0.00105206 0.735236)
(0.000157198 0.000267337 0.364841)
(0.000319671 -0.000257668 0.385427)
(-0.198847 1.84373 -0.000135996)
(-0.0617943 1.51121 -2.83434e-05)
(1.3835 0.923131 -0.00142795)
(0.0248457 0.0234699 2.12727e-05)
(0.337287 -0.138614 0.000126294)
(0.344902 -0.140214 0.000556603)
(0.0198036 0.0186591 1.01449e-05)
(0.000232273 -0.000153343 0.549911)
(0.000198224 -9.89855e-05 0.382908)
(0.000205152 9.9833e-05 0.343744)
(0.000383334 0.00025517 0.367798)
(-0.0897358 -0.722483 0.000433841)
(1.36784 0.905656 -0.000620288)
(1.35487 0.897044 -0.000605702)
(1.32809 0.879279 -0.000584097)
(1.35408 0.896511 -0.000604412)
(0.397339 1.94396 -0.0012275)
(0.174987 0.756705 -0.000527847)
(0.176807 0.765082 -0.000536404)
(0.419796 2.05484 -0.00129611)
(0.270633 1.59901 -0.000985084)
(0.289459 1.71057 -0.00101908)
(-0.0233724 -0.13828 0.000110141)
(-0.0301338 -0.177394 0.000139491)
(-0.054648 -0.339998 0.000249093)
(-0.049227 -0.306468 0.000216197)
(-0.0398237 -0.233612 0.000191181)
(-0.032676 -0.192102 0.000152066)
(0.254006 2.16085 -0.00124234)
(0.241062 2.05017 -0.00130204)
(0.0256503 0.0946797 -1.07831e-05)
(0.0242137 0.0978212 -3.49228e-05)
(0.0359155 0.146026 0.000171711)
(0.033708 0.124653 -3.97813e-05)
(0.00213065 0.00845388 6.72206e-05)
(0.0284438 0.121784 9.66062e-05)
(0.0375731 0.162311 3.08001e-05)
(0.0227889 0.101515 8.72346e-05)
(0.0416809 0.154316 -6.54671e-05)
(0.0460373 0.187712 0.000179249)
(0.0359914 0.13315 -4.76416e-05)
(0.0426606 0.636816 -0.000361302)
(-0.00163156 1.02326 -0.000564096)
(-0.00182171 1.12764 -0.000619406)
(0.0469664 0.701337 -0.000402142)
(-0.0544463 1.34597 -0.000732479)
(1.318 0.872563 -0.000569788)
(-0.0569296 1.40701 -0.00076885)
(-0.0488898 1.20938 -0.000655279)
(-0.0532475 1.31652 -0.000715585)
(1.31526 0.870742 -0.000569599)
(-0.00187535 1.15597 -0.00063532)
(0.0512882 0.766988 -0.000432954)
(-0.00198186 1.21254 -0.000668475)
(0.0482776 0.721409 -0.000385236)
(0.226967 1.34022 -0.000802507)
(0.41152 2.56233 -0.00356034)
(0.237736 1.58317 -0.000967887)
(0.247312 1.46054 -0.000936043)
(0.405998 2.5319 -0.0014992)
(0.3782 2.3575 -0.00144043)
(0.195743 1.30191 -0.00158214)
(-0.0807356 -0.592641 3.04427e-05)
(-0.1016 -0.818128 0.000530841)
(-0.066007 -0.438241 0.000312542)
(-0.0560456 -0.349305 0.000289119)
(-0.0794055 -0.532774 0.000294212)
(-0.0524147 -0.327579 0.000287227)
(-0.0230058 -0.128193 0.000143167)
(-0.0436203 -0.256366 0.000248035)
(0.0060166 0.0233296 0.000239185)
(-0.0462946 -0.273419 0.000232233)
(0.231258 1.03921 -0.000719682)
(0.179464 0.775392 -0.000509255)
(0.237701 1.12009 -0.000726599)
(0.177239 0.766034 -0.000514489)
(0.224834 1.01365 -0.00067407)
(0.24168 1.13753 -0.00105874)
(0.367972 1.79828 -0.00124262)
(0.105661 0.413112 -0.000221639)
(0.089212 0.348717 -0.000219338)
(0.0954053 0.348007 -0.000172163)
(0.0750928 0.27379 -0.000167374)
(0.0865908 0.338502 -0.000226639)
(0.0805203 0.314837 -0.000226958)
(0.0554145 0.199865 -9.56851e-05)
(0.042413 0.152879 -9.31594e-05)
(0.125541 0.290995 -0.000102732)
(0.106745 0.247316 -5.25414e-05)
(-0.0206446 -0.156468 0.000143858)
(-0.018076 -0.1293 0.000127895)
(0.0814219 0.416179 -0.000561596)
(0.0859821 0.429189 -0.00025834)
(0.124432 0.656858 -0.00104398)
(-0.0192227 -0.189986 8.01672e-05)
(-0.0198206 -0.180717 0.000153335)
(-0.0171443 -0.188655 -0.000163359)
(-0.021165 -0.293627 0.000167354)
(0.0772927 0.369971 -0.000374229)
(0.0818622 0.408667 -0.000234115)
(-0.00380729 -0.0161584 6.45649e-05)
(0.00643871 0.0249177 9.97043e-05)
(-0.000216351 -0.00162248 7.18681e-05)
(0.0133623 0.0489723 4.45856e-05)
(0.0176679 0.648279 -0.000347283)
(-0.00127615 0.845301 -0.000488824)
(0.0269426 0.568166 -0.000376347)
(0.0361435 0.540966 -0.000397886)
(-0.105566 1.00416 -0.00200737)
(-0.0410554 1.01859 -0.000621718)
(1.23166 0.822536 0.00261032)
(-0.463181 1.50754 -0.000570201)
(-0.0449264 1.11254 -0.000621172)
(-0.141117 1.31374 -0.000672289)
(-0.0117125 -0.0612298 0.000100749)
(-0.00847186 -0.0436365 8.30835e-05)
(-0.0102714 -0.052646 9.49156e-05)
(-0.00987708 -0.0518448 8.99787e-05)
(-0.0247851 -0.136067 2.14737e-05)
(0.000630724 0.000493636 0.390276)
(0.058509 0.39365 -0.000252409)
(0.0924307 0.640035 -0.000528718)
(0.0606261 0.407626 -0.000327132)
(0.126883 0.463113 -0.000188164)
(0.154133 0.562856 -0.000244552)
(0.0731664 0.264067 -0.000102912)
(0.0619055 0.216572 -9.17938e-05)
(0.0815733 0.285925 -0.000304158)
(0.0893978 0.32285 -0.000150132)
(0.446196 -0.186463 -0.00280844)
(0.216515 0.198832 0.00084546)
(0.263797 0.245369 0.000184261)
(0.52093 -0.21733 -0.00115093)
(0.226124 0.980335 -0.000630249)
(0.573527 2.81109 -0.00171134)
(0.224285 0.972586 -0.000594395)
(0.559201 2.7405 -0.00170286)
(-0.0690885 -0.558765 0.00014929)
(-0.00360738 -0.0255253 9.8645e-06)
(-0.00337503 -0.0240941 8.10992e-06)
(0.199409 0.865809 -0.000220837)
(0.630866 3.0951 -0.000876122)
(0.212489 0.922389 -0.000220066)
(-0.0608755 -0.442588 0.000278174)
(0.174905 0.769007 -0.000149921)
(0.141875 0.654712 -0.000139864)
(0.175223 0.770419 -0.000171071)
(0.141713 0.653921 -0.000126774)
(0.0585276 0.214544 -3.73304e-05)
(0.0621563 0.227827 -4.49006e-05)
(-0.0349631 -0.256391 4.60344e-05)
(0.159628 0.790006 -0.00016378)
(0.0621383 0.326727 -6.56028e-05)
(0.0313911 0.113809 -1.98662e-05)
(0.0332245 0.120442 -2.31206e-05)
(1.38971 0.920968 -0.000181089)
(0.0313115 0.0294455 -1.69272e-06)
(0.343031 -0.142334 -7.53637e-06)
(0.0341931 0.0321591 -7.65086e-06)
(0.340761 -0.141334 -8.95804e-06)
(-0.0205378 -0.129795 8.70525e-05)
(-0.0229864 -0.144874 9.74941e-05)
(-0.0394238 -0.246098 0.000168953)
(-0.0945816 -0.761103 0.00046287)
(-0.0344552 -0.215501 0.000146675)
(0.183404 0.794388 -0.000553181)
(0.194719 0.844122 -0.00057158)
(0.104227 0.456196 -0.000216755)
(0.0783586 0.359729 -0.000169356)
(0.107743 0.471698 -0.000228689)
(0.0750307 0.344319 -0.000156896)
(0.0447881 0.204263 -4.48563e-05)
(0.069975 0.305166 -9.20628e-05)
(0.0768657 0.335562 -0.00011884)
(0.0506639 0.231518 -6.98736e-05)
(0.0574643 0.210218 -0.000187434)
(0.0559223 0.204439 -0.000181344)
(0.0615399 0.224426 -0.000171198)
(0.0577099 0.210555 -0.000172377)
(0.0150678 0.0771924 -1.55083e-05)
(0.0702261 0.344651 -0.000145399)
(-0.0683741 -0.496742 0.000331387)
(0.0269399 0.129335 2.6805e-05)
(-0.00611906 -0.0350071 7.44537e-05)
(0.0340816 0.164964 -6.86393e-06)
(0.0311628 0.112745 -0.000106069)
(0.0298517 0.107917 -0.00010124)
(0.0331757 0.119598 -9.34948e-05)
(0.0306056 0.110385 -9.40358e-05)
(1.32986 0.880425 -0.00058082)
(1.29794 0.859304 -0.000488294)
(0.130526 0.122956 -8.63764e-05)
(0.35793 -0.148615 6.30126e-05)
(0.368976 -0.153201 6.66458e-05)
(0.11827 0.1114 -8.20571e-05)
(0.478219 -0.198317 3.40838e-05)
(0.223414 0.210421 -0.000113452)
(0.209001 0.196913 -0.00011308)
(0.458018 -0.190046 4.77392e-05)
(-9.68576e-05 -0.0262025 7.45443e-06)
(-4.96232e-05 -0.0226282 9.10523e-06)
(-0.05314 -0.523033 0.00022187)
(-3.37828e-05 -0.0214058 1.09143e-05)
(-0.000175086 -0.0319425 1.31139e-05)
(-0.0697431 -0.563696 0.000244344)
(-0.0542389 -0.533308 0.000284308)
(-0.000161944 -0.0307121 1.94718e-05)
(-5.62387e-05 -0.0229918 1.44977e-05)
(-0.0719216 -0.580783 0.000313205)
(-0.0723595 -0.584261 0.000317247)
(-3.37495e-05 -0.0211162 1.71701e-05)
(-0.0575616 -0.5653 0.000322423)
(-0.000172843 -0.0314175 2.20736e-05)
(-0.0793652 -0.63991 0.000371831)
(1.38374 0.916261 -0.000659971)
(1.38189 0.915022 -0.000651488)
(1.37965 0.913524 -0.000642453)
(1.38389 0.916341 -0.000651145)
(0.219926 0.953604 -0.000623696)
(0.522253 2.55948 -0.00158224)
(0.54797 2.68551 -0.00166348)
(0.187202 0.811819 -0.000539295)
(0.178894 0.774394 -0.000541326)
(0.236007 1.06501 -0.000709491)
(0.266976 1.25945 -0.000803733)
(0.441566 2.16202 -0.00134844)
(0.180301 0.78063 -0.000544097)
(0.243117 1.09753 -0.000724786)
(0.256492 1.20961 -0.000778772)
(0.434104 2.12527 -0.00133622)
(1.38495 0.91754 -0.000470555)
(1.38445 0.917256 -0.000401468)
(1.38396 0.916976 -0.000301955)
(1.3849 0.917562 -0.000390093)
(0.441046 2.61466 -0.000537605)
(0.441476 2.617 -0.000749082)
(-0.00300631 -0.0218377 5.66879e-06)
(-0.0689346 -0.557566 0.000138587)
(-0.00326826 -0.0234372 7.45152e-06)
(0.0195754 0.110393 -3.64048e-05)
(0.0198098 0.111764 -3.15052e-05)
(0.0201302 0.113624 -2.3553e-05)
(0.019916 0.112384 -2.96956e-05)
(0.208055 0.903343 -0.000150016)
(0.207294 0.900068 -0.000226084)
(0.67339 3.30438 -0.000920684)
(-0.0549136 -0.364909 0.000237333)
(-0.0432838 -0.269868 0.000186165)
(-0.064419 -0.468124 0.000299138)
(-0.045318 -0.282394 0.00019581)
(-0.059597 -0.39572 0.000261834)
(0.427863 3.66117 -0.000641234)
(0.423383 3.62176 -0.00050025)
(0.0829884 0.308469 -4.43109e-05)
(0.106998 0.438951 0.000501366)
(0.107003 0.438976 -0.000642498)
(0.0828083 0.307794 -5.74629e-05)
(0.138336 0.637717 -0.000127402)
(0.173534 0.76286 -0.000108319)
(0.17485 0.768735 -0.000132047)
(0.141439 0.652512 -0.000114155)
(0.106901 0.438551 0.000475078)
(0.0825054 0.306659 -7.3748e-05)
(0.106757 0.437947 -0.000665229)
(0.0826921 0.307361 -6.20757e-05)
(0.0770191 1.16012 -0.000171546)
(-0.00301238 1.46843 -0.000223351)
(-0.0024965 1.20046 -0.000279464)
(0.083076 1.2544 -0.000198968)
(-0.0533776 1.30622 -0.000288937)
(1.38525 0.917857 -0.000239888)
(-0.048137 1.17804 -0.000298593)
(-0.0669863 1.63922 -0.000241553)
(-0.0562924 1.37758 -0.000285094)
(1.387 0.919014 -0.000216928)
(-0.00234011 1.10425 -0.000266494)
(0.0714414 1.07944 -0.000244102)
(-0.00202528 0.922248 -0.00024002)
(0.0811572 1.22586 -0.000214967)
(0.306695 1.38784 -0.000117357)
(0.228909 0.993943 -0.000130759)
(0.631802 3.10039 -0.000338728)
(0.370493 1.75216 -0.000264735)
(0.333984 1.5795 -9.8713e-05)
(0.611302 2.99961 -0.000345524)
(0.222072 0.964239 -0.00014331)
(0.314086 1.42123 -0.000211252)
(0.0820316 0.322214 -7.66957e-05)
(0.0725598 0.284986 -6.6681e-05)
(0.0704143 0.258085 -5.53478e-05)
(0.063987 0.234539 -4.72853e-05)
(0.0700405 0.275086 -6.06992e-05)
(0.695895 4.35289 -0.00080547)
(0.426031 2.52546 -0.000351369)
(0.725229 4.53797 -0.000622544)
(0.457347 3.05823 -0.000543107)
(0.456244 3.05011 -0.000401329)
(0.432191 2.5622 -0.000365612)
(-0.0328794 -0.24183 3.36591e-05)
(-0.0217016 -0.146678 2.77532e-05)
(-0.00272547 -0.0202234 4.43354e-06)
(-0.0207795 -0.141222 2.16138e-05)
(-0.00260526 -0.0196663 4.07001e-06)
(0.0614856 0.322774 -4.00617e-05)
(0.157466 0.778478 -9.88324e-05)
(0.159817 0.790639 -0.000129164)
(0.0462786 0.249259 -4.8503e-05)
(0.020367 0.114896 -1.90314e-05)
(0.046381 0.249306 -3.30107e-05)
(0.0204862 0.115419 -1.63382e-05)
(0.0377503 0.136849 -3.0222e-05)
(0.0341864 0.123933 -2.45427e-05)
(0.065526 0.238917 -0.00017038)
(0.0680052 0.247939 -0.000169422)
(0.0317663 0.111017 -8.4296e-05)
(0.0358983 0.129393 -9.33785e-05)
(0.0377076 0.131784 -8.46128e-05)
(0.0375975 0.135512 -9.30965e-05)
(0.273153 0.801822 -0.000106859)
(0.27367 0.803298 -8.22213e-05)
(0.284168 0.660156 -7.19035e-05)
(0.284364 0.660612 -7.13595e-05)
(-0.201821 1.87111 -0.000132037)
(-0.0674862 1.65142 -0.000150704)
(1.38956 0.921256 -0.000231902)
(-0.858711 2.7933 -0.000295697)
(-0.0682331 1.66969 -0.000183263)
(-0.203953 1.8901 -0.00023334)
(0.0749645 0.274808 -5.95514e-05)
(0.0752922 0.276049 -5.68005e-05)
(0.0425373 0.154244 -3.52851e-05)
(0.0348156 0.122398 -2.88163e-05)
(0.0393305 0.138363 -2.01296e-05)
(0.0441529 0.160136 -3.23253e-05)
(0.412697 2.442 -0.00149484)
(0.388521 2.2987 -0.00142309)
(0.000532203 3.34907e-05 1.29318e-05)
(-0.0022364 -0.0159898 2.40854e-05)
(-0.0272341 -0.171034 0.000115705)
(-0.0240917 -0.151681 0.000101965)
(-0.00704552 -0.0438186 4.34719e-05)
(-0.00349932 -0.0232981 2.88802e-05)
(1.36629 0.904633 -0.000620395)
(1.37513 0.910505 -0.000630727)
(1.38089 0.914338 -0.000642349)
(1.37575 0.910919 -0.000631885)
(-0.0209434 -0.124227 0.000100141)
(-0.0152561 -0.0913236 7.64101e-05)
(0.351455 2.07845 -0.00125299)
(0.377947 2.23591 -0.00138039)
(-0.0931265 -0.749505 0.000454181)
(-0.02866 -0.179816 0.000121602)
(-0.0327101 -0.204755 0.000139182)
(-0.00867857 -0.0532682 4.97794e-05)
(-0.0132408 -0.0796643 6.83587e-05)
(0.195708 0.848432 -0.000559365)
(0.514391 2.52088 -0.00157474)
(0.188203 0.816067 -0.000542022)
(0.479033 2.34692 -0.00148593)
(0.283485 2.4125 -0.00140583)
(0.291787 2.48354 -0.0014585)
(0.0665294 0.271978 0.000217707)
(0.0538226 0.199497 -0.000100694)
(0.0566215 0.20991 -0.000108756)
(0.0626365 0.25597 -0.000445082)
(0.0992814 0.434395 -0.000199721)
(0.06651 0.304882 -0.000127578)
(0.0949019 0.415092 -0.00018363)
(0.0705463 0.32356 -0.000142469)
(0.0598824 0.222045 -0.000118027)
(0.0575549 0.213384 -0.000111496)
(0.0712756 0.291498 0.00022752)
(-0.0022893 1.37313 -0.000761797)
(0.0575375 0.860955 -0.000484812)
(0.0588301 0.880399 -0.000495544)
(-0.00223805 1.34656 -0.000745913)
(-0.0640933 1.58299 -0.000873321)
(1.36468 0.903554 -0.000614047)
(-0.0648091 1.6005 -0.000886788)
(-0.00230743 1.38225 -0.000767392)
(0.0602823 0.902272 -0.000509482)
(-0.00233674 1.39549 -0.000777954)
(0.0592543 0.886785 -0.000499409)
(-0.0636676 1.57254 -0.000866725)
(1.36203 0.901797 -0.00061159)
(-0.062491 1.54365 -0.00084897)
(0.317608 2.70405 -0.0015596)
(0.311742 2.65391 -0.00153336)
(0.0434912 0.161054 -7.1045e-05)
(0.0477808 0.177016 -8.33489e-05)
(0.0561558 0.229323 -0.000389655)
(0.0526178 0.195013 -9.74188e-05)
(0.0608253 0.248522 0.000205594)
(0.0492358 0.182429 -8.75393e-05)
(0.0835238 0.364923 -0.000144214)
(0.0611327 0.279996 -0.000109034)
(0.0887121 0.387803 -0.000162978)
(0.05643 0.258224 -9.13298e-05)
(-0.0576008 1.42344 -0.000778412)
(-0.0598559 1.47894 -0.00080871)
(1.34189 0.888429 -0.000592669)
(0.0521192 0.77952 -0.000440043)
(-0.00201537 1.22842 -0.000677759)
(-0.00211597 1.28348 -0.000707557)
(0.0544515 0.814544 -0.000458551)
(-0.00214653 1.29959 -0.000717008)
(0.0569841 0.85261 -0.000480111)
(0.0552461 0.826483 -0.000465072)
(-0.00221435 1.33518 -0.000739212)
(-0.0605217 1.49531 -0.000818456)
(1.34727 0.891991 -0.000596565)
(-0.0620184 1.53208 -0.000842167)
(0.0748769 0.293305 -0.000231697)
(0.0751593 0.294272 -0.000231831)
(0.0553189 0.202045 -0.000176343)
(0.055555 0.20305 -0.000179718)
(0.0749843 0.293908 -0.000231767)
(0.240588 1.13399 -0.000739193)
(0.404479 1.97927 -0.00127867)
(0.225922 1.01877 -0.000681744)
(0.174935 0.756658 -0.000536546)
(0.175936 0.761164 -0.000536832)
(0.233067 1.05159 -0.000702128)
(0.412696 2.01985 -0.00127363)
(0.252271 1.18957 -0.000769681)
(0.0766156 0.299731 -0.000229305)
(0.0762048 0.298173 -0.000230203)
(0.0751857 0.294326 -0.000231213)
(0.0553857 0.202242 -0.000175112)
(0.0569096 0.207675 -0.000173075)
(0.263681 1.75645 -0.00104504)
(0.420814 2.62476 -0.00157716)
(0.276895 1.63608 -0.000985652)
(0.283471 1.67508 -0.00100718)
(0.45132 2.81551 -0.00166474)
(0.441559 2.75456 -0.00163567)
(0.270327 1.80085 -0.0010587)
(-0.0006661 -0.00636562 3.41937e-05)
(-0.0254438 -0.150265 0.000118703)
(0.0539877 0.263963 -8.55459e-05)
(0.00705224 0.0348001 1.58578e-05)
(-0.0278907 -0.16442 0.000129357)
(-0.0082731 -0.0477202 6.51084e-05)
(-0.0652035 -0.432744 0.000300392)
(-0.0528882 -0.329063 0.000237457)
(-0.0655839 -0.476511 0.000307904)
(-0.051099 -0.318006 0.000225322)
(-0.0611907 -0.406213 0.000271972)
(0.46263 2.88626 -0.00170124)
(0.472084 2.94541 -0.0017303)
(0.29404 1.95936 -0.0011388)
(0.287975 1.91882 -0.00111732)
(-0.0201209 -0.11229 0.000121242)
(-0.037421 -0.219609 0.000175591)
(0.047332 0.230886 -6.0015e-05)
(0.00374201 0.0172899 2.90513e-05)
(0.0411198 0.199995 -3.6879e-05)
(-0.0350117 -0.20563 0.000162453)
(-0.0113006 -0.0641821 7.7856e-05)
(0.0291429 0.105238 -9.69469e-05)
(0.0295197 0.106688 -9.98835e-05)
(0.0291586 0.105266 -9.60358e-05)
(0.0300741 0.108491 -9.44526e-05)
(0.12087 0.353883 -0.000138869)
(0.146862 0.430196 -0.000203398)
(0.195584 0.453673 -0.000249189)
(0.190297 0.441397 -0.000240126)
(0.162759 0.377472 -0.000193598)
(0.170977 0.396558 -0.000211366)
(0.153874 0.450788 -0.000220368)
(-0.60979 1.98623 -0.0010267)
(1.32481 0.877078 -0.000574029)
(-0.0562027 1.38916 -0.000757267)
(-0.169041 1.57277 -0.000848836)
(-0.582279 1.8968 -0.00104152)
(-0.511928 1.66702 -0.000764868)
(-0.530227 1.72697 -0.000897623)
(-0.146314 1.36204 -0.000730188)
(-0.0503942 1.24638 -0.000673734)
(1.30826 0.866082 -0.000540276)
(-0.565007 1.84068 -0.000956488)
(0.0873515 0.318553 -0.00016559)
(0.0803686 0.293066 -0.000169171)
(0.144141 0.135795 -9.1041e-05)
(0.398746 -0.165564 7.55478e-05)
(0.382966 -0.159009 7.11186e-05)
(0.158284 0.149131 -9.40165e-05)
(0.0540832 0.189146 -8.70838e-05)
(0.0504035 0.181735 -9.19917e-05)
(0.0458253 0.165203 -9.40171e-05)
(0.0404797 0.14148 -8.42494e-05)
(0.189999 0.179027 -0.000105593)
(0.417013 -0.173139 6.98671e-05)
(0.43561 -0.180823 6.52757e-05)
(0.174416 0.164341 -9.77815e-05)
(0.648269 3.18039 -0.000935612)
(0.228258 0.990775 -0.000249977)
(0.240613 1.04458 -0.000372081)
(0.631603 3.09889 -0.00113674)
(0.224016 0.971893 -0.000529352)
(0.628667 3.083 -0.00150872)
(0.252212 1.09436 -0.000547383)
(0.647247 3.17384 -0.00170298)
(0.230906 1.00163 -0.000545753)
(0.637001 3.12304 -0.00168124)
(0.199955 0.867533 -0.000499773)
(0.634678 3.11168 -0.00177623)
(-0.0693077 -0.560462 0.000168665)
(-0.0356641 -0.261283 8.51562e-05)
(-0.0470229 -0.342774 0.000205427)
(-0.0595384 -0.432951 0.000270819)