/*--------------------------------*- C++ -*----------------------------------*\
| =========                 |                                                 |
| \\      /  F ield         | OpenFOAM: The Open Source CFD Toolbox           |
|  \\    /   O peration     | Version:  2306                                  |
|   \\  /    A nd           | Website:  www.openfoam.com                      |
|    \\/     M anipulation  |                                                 |
\*---------------------------------------------------------------------------*/
FoamFile
{
    version     2.0;
    format      ascii;
    arch        "LSB;label=32;scalar=64";
    class       volScalarField;
    location    "0.9";
    object      p;
}
// * * * * * * * * * * * * * * * * * * * * * * * * * * * * * * * * * * * * * //

dimensions      [0 2 -2 0 0 0 0];

internalField   nonuniform List<scalar> 
111542
(
60.7524
62.0303
65.0951
70.1267
77.209
86.5568
98.3357
112.588
128.84
145.7
160.646
169.712
168.864
156.848
136.617
113.788
92.2902
73.6607
58.1279
45.6045
35.7167
28.1291
22.438
18.1253
14.8545
12.3505
10.3322
8.76261
7.58774
6.67844
5.95131
5.35016
4.88745
4.49324
4.11663
3.7165
3.24033
2.6842
1.94911
0.947808
59.6523
60.89
63.9248
68.9004
75.9813
85.4858
97.7901
113.154
131.425
151.552
170.882
183.89
183.019
166.937
141.354
114.789
91.323
71.6753
55.7284
43.1724
33.5371
26.286
20.8703
16.8843
13.8905
11.5704
9.75281
8.34794
7.26347
6.40582
5.71175
5.14213
4.67316
4.26575
3.88108
3.48237
3.02711
2.47141
1.74701
0.800487
57.4743
58.646
61.5442
66.348
73.3307
83.0023
96.0766
113.366
135.537
162.431
190.726
211.879
211.719
186.297
150.361
117.472
90.3067
68.6196
51.8388
39.1678
29.7937
23.2078
18.5199
15.0628
12.2214
9.90444
8.1536
6.87426
5.92317
5.19779
4.63734
4.20021
3.85176
3.55981
3.29004
3.00716
2.66773
2.2168
1.58309
0.69346
54.2771
55.3252
57.9392
62.3447
68.9257
78.4083
91.9428
111.231
138.674
177.495
212.239
254.47
259.512
218.224
166.214
126.342
93.7034
68.7082
50.381
37.0826
23.5173
17.3694
14.9826
13.5659
11.5701
9.50965
7.85771
6.60158
5.61159
4.81419
4.17498
3.66453
3.25412
2.91456
2.61776
2.33283
2.01544
1.60466
1.0095
0.120665
50.1796
51.025
53.1554
56.8123
62.4329
70.8606
83.5427
102.909
132.991
177.585
254.306
339.778
361.781
252.226
168.115
121.267
82.7121
56.4052
39.095
28.0307
21.0033
6.46129
5.61853
6.06034
5.39506
4.60244
4.03642
3.60051
3.22337
2.90046
2.63472
2.41809
2.24148
2.09214
1.96014
1.82939
1.66887
1.42442
0.979719
0.0613662
45.3871
45.9425
47.3667
49.8595
53.7954
59.9091
69.537
85.1488
111.544
166.267
260.015
454.431
615.021
237.238
165.82
111.988
66.302
40.3772
25.1582
16.0725
14.298
14.6971
13.5487
8.49985
5.11473
3.53404
2.69292
2.07838
1.60252
1.26117
1.02815
0.869972
0.763237
0.692622
0.64732
0.616109
0.58518
0.541304
0.487868
0.542696
40.2023
40.3976
40.93
41.8988
43.4853
46.0318
50.1352
56.8093
67.8128
107.553
184.222
417.127
1943.79
-437.239
201.756
77.6345
31.3131
15.1789
6.74298
-2.61023
-9.34889
13.8294
14.0413
8.60312
5.17293
3.85106
3.28661
2.88187
2.55863
2.32611
2.16353
2.04103
1.94163
1.85595
1.77983
1.71003
1.63487
1.54622
1.43047
1.27145
35.0016
34.8136
34.374
33.6594
32.6039
31.0405
28.5809
24.3076
15.8859
18.6376
2.92074
-155.575
-996.37
-1034.38
-311.321
-100.872
-46.2633
-26.2729
-17.2575
-11.0309
-4.23696
-8.54662
-6.37941
-4.53291
-3.59547
-2.65518
-1.7227
-0.973811
-0.410191
0.0298949
0.385709
0.674499
0.907989
1.09501
1.24136
1.34675
1.39605
1.35596
1.15503
0.659702
30.2097
29.6661
28.3103
26.0183
22.5259
17.2825
9.27847
-3.36111
-24.2317
-47.0527
-119.814
-263.329
-472.883
-502.598
-318.715
-174.913
-100.774
-61.6787
-39.7116
-25.7169
-15.6335
-8.73366
-4.64925
-1.72403
0.00235847
1.06212
1.82671
2.37984
2.75206
2.9924
3.14356
3.23078
3.26772
3.26146
3.21262
3.11489
2.94436
2.65108
2.137
1.20687
26.233
25.3835
23.2826
19.7293
14.3482
6.42092
-5.25009
-22.6256
-48.9736
-89.8797
-147.31
-219.891
-285.412
-294.304
-237.784
-165.491
-110.543
-75.0827
-51.9817
-35.9203
-24.4886
-16.8328
-11.7502
-8.11668
-5.52747
-3.67644
-2.28291
-1.20239
-0.368788
0.271255
0.766086
1.15105
1.44772
1.66753
1.81132
1.87326
1.82977
1.63656
1.23011
0.558626
23.3902
22.3322
19.7172
15.3173
8.71536
-0.805021
-14.3428
-33.3875
-59.81
-95.4976
-140.488
-189.707
-228.667
-236.451
-206.834
-158.648
-114.537
-82.1315
-59.2555
-42.5358
-30.0781
-20.9335
-14.2357
-9.31624
-5.71876
-3.10733
-1.20072
0.201768
1.22899
1.97217
2.50242
2.87259
3.11796
3.25819
3.29277
3.23221
3.05211
2.70402
2.11217
1.14063
21.9088
20.7559
17.8677
13.0681
5.86643
-4.35959
-18.6246
-38.076
-63.8884
-96.4616
-134.381
-172.361
-200.522
-207.247
-188.232
-152.823
-115.639
-85.2334
-62.5086
-45.4913
-32.608
-22.9609
-15.8703
-10.7073
-6.99704
-4.31901
-2.37027
-0.939219
0.117095
0.896554
1.47032
1.88976
2.19048
2.39714
2.45618
2.44286
2.31464
2.01926
1.50336
0.708505
60.2443
61.4631
64.4489
69.3109
76.1459
85.1589
96.5465
110.307
125.974
142.256
156.72
165.514
164.672
153.057
133.456
111.244
90.2944
72.0783
56.882
44.6163
34.9754
27.5518
21.9212
17.6769
14.4489
11.9394
9.95919
8.42489
7.25863
6.36492
5.66841
5.11787
4.681
4.31271
3.97026
3.61351
3.19849
2.67754
1.97113
0.978023
59.1536
60.345
63.2801
68.0871
74.924
84.099
95.981
110.817
128.466
147.942
166.694
179.427
178.494
162.897
138.074
112.234
89.3258
70.0957
54.4935
42.2303
32.8325
25.7057
20.3347
16.3816
13.4191
11.1211
9.33067
7.95506
6.89934
6.07557
5.42144
4.89536
4.46535
4.0961
3.75291
3.39957
2.9948
2.48552
1.80068
0.861225
56.9988
58.1252
60.9208
65.5579
72.2973
81.632
94.2564
110.965
132.42
158.498
185.987
206.61
206.68
182.01
147.079
115.031
88.4179
67.1209
50.6753
38.3143
29.2292
22.7082
17.9524
14.4326
11.5769
9.28033
7.57057
6.34715
5.46074
4.80345
4.31118
3.93942
3.65184
3.41568
3.19983
2.97081
2.68803
2.29334
1.70287
0.799522
53.8377
54.8414
57.3572
61.6028
67.9473
77.0942
90.1652
108.829
135.455
173.254
208.513
250.146
255.225
214.481
163.595
124.47
92.2145
67.4733
49.3796
36.3068
22.8219
16.7652
14.2559
12.7577
10.7499
8.73827
7.17622
6.02614
5.13997
4.43649
3.87907
3.43757
3.0855
2.7964
2.54689
2.31097
2.05073
1.70348
1.15978
0.227867
49.7898
50.5938
52.6365
56.1508
61.5577
69.6762
81.9204
100.679
129.94
174.578
250.343
335.102
356.954
248.167
165.964
120.175
81.7009
55.3848
38.118
27.0532
19.6177
5.57101
4.41947
4.75655
4.10983
3.41534
3.00513
2.7446
2.53254
2.35294
2.20619
2.08463
1.98297
1.89291
1.80914
1.72532
1.62119
1.44642
1.06829
0.101397
45.059
45.5777
46.932
49.3128
53.0805
58.9501
68.2307
83.3573
109.095
163.698
257.178
450.8
611.133
232.134
162.315
113.406
66.3917
39.7006
24.1292
14.7876
10.0143
12.6549
12.1916
7.55019
4.50931
3.20622
2.56995
2.09505
1.69919
1.38761
1.14794
0.960396
0.81519
0.706211
0.631557
0.59082
0.582671
0.607557
0.677735
0.874951
39.9469
40.1108
40.5969
41.4952
42.9799
45.3858
49.3031
55.7477
66.5019
106.073
182.561
416.253
1933.92
176.169
86.4835
33.212
15.631
6.85018
-3.45694
-7.74161
16.3803
15.7039
9.64986
5.97849
4.42954
3.60474
2.9529
2.41833
2.01137
1.70862
1.47843
1.3029
1.17044
1.07659
1.01986
0.998537
1.01676
1.0986
1.37354
34.7928
34.6119
34.1523
33.4115
32.3287
30.7432
28.2836
24.0752
15.866
18.6093
3.19605
-152.795
-973.73
-1021.94
-306.844
-99.101
-45.4463
-25.9135
-17.1796
-11.0422
-3.40171
-8.58672
-6.36872
-4.51985
-3.45528
-2.42939
-1.50232
-0.80535
-0.30598
0.0685224
0.36179
0.595254
0.78425
0.93939
1.07007
1.18053
1.26319
1.29051
1.19118
0.782299
30.0828
29.5434
28.1864
25.9129
22.4626
17.3009
9.45153
-2.90466
-23.2651
-46.0237
-117.431
-258.929
-465.736
-492.621
-313.154
-171.707
-98.8855
-60.6346
-39.2092
-25.5444
-15.5316
-8.97322
-4.83314
-1.8505
-0.0567127
1.0264
1.75611
2.24242
2.53929
2.70642
2.79184
2.82452
2.82058
2.78876
2.73181
2.64587
2.51061
2.2793
1.85658
1.05044
26.1564
25.3092
23.2442
19.7456
14.4582
6.68954
-4.72215
-21.6795
-47.3581
-87.2108
-143.193
-214.088
-278.403
-286.901
-231.65
-161.279
-107.94
-73.5684
-51.1703
-35.589
-24.4855
-17.0266
-11.9624
-8.29628
-5.68242
-3.81988
-2.42742
-1.35895
-0.545132
0.070826
0.540563
0.901996
1.17909
1.3853
1.52487
1.59393
1.57223
1.41863
1.07306
0.486054
23.353
22.3125
19.7394
15.4129
8.94464
-0.370424
-13.5926
-32.1647
-57.8964
-92.6327
-136.434
-184.391
-222.449
-230.241
-201.458
-154.714
-111.929
-80.5019
-58.2933
-42.0422
-29.9187
-20.9938
-14.3986
-9.53152
-5.96729
-3.37688
-1.48462
-0.0962936
0.913918
1.63776
2.1483
2.50014
2.73007
2.86007
2.89797
2.84592
2.68508
2.37354
1.84444
0.98808
21.8939
20.7506
17.9252
13.192
6.1579
-3.84742
-17.775
-36.7467
-61.8582
-93.5792
-130.51
-167.533
-195.069
-201.855
-183.554
-149.132
-113.017
-83.5215
-61.4473
-44.8968
-32.3446
-22.9279
-15.9831
-10.9195
-7.24869
-4.58826
-2.64967
-1.22565
-0.176128
0.595552
1.16053
1.57046
1.86024
2.04896
2.1357
2.13112
2.01493
1.74804
1.28707
0.604789
59.2475
60.378
63.168
67.7039
74.0728
82.4623
93.0547
105.834
120.368
135.475
148.89
157.038
156.25
145.368
126.94
105.969
86.0903
68.7255
54.2196
42.5216
33.3425
26.2527
20.8465
16.7821
13.7095
11.3264
9.45201
7.98882
6.8579
5.98062
5.291
4.74045
4.29203
3.91264
3.5687
3.22404
2.83759
2.35774
1.71554
0.821861
58.1792
59.2828
62.0181
66.4985
72.8652
81.4009
92.4461
106.227
122.618
140.722
158.211
170.02
169.265
154.665
131.321
106.916
85.1361
66.7733
51.8854
40.2252
31.3161
24.4892
19.3344
15.5951
12.8231
10.6545
8.93283
7.58044
6.51948
5.67727
5.00065
4.45186
3.99961
3.61504
3.26946
2.93082
2.5606
2.10709
1.50355
0.680528
56.0701
57.1089
59.7057
64.0188
70.2842
78.9574
90.6856
106.216
126.187
150.529
176.284
195.898
196.011
172.842
140.011
109.701
84.2683
63.8416
48.1397
36.4607
28.0484
21.7945
17.1648
13.8613
11.2601
9.14739
7.5229
6.31233
5.39582
4.68465
4.12755
3.68943
3.34086
3.05662
2.81165
2.57928
2.32368
1.99058
1.49351
0.699816
52.9803
53.8991
56.2253
60.1601
66.0414
74.5234
86.6593
104.031
128.911
164.439
199.29
239.348
244.456
205.472
157.133
119.741
88.4571
64.4439
47.0017
34.5386
21.5498
16.1202
13.8807
12.405
10.315
8.18179
6.48642
5.21088
4.21874
3.43318
2.81594
2.3357
1.96451
1.6768
1.45205
1.27028
1.10229
0.89514
0.548936
-0.109905
49.0309
49.7568
51.6307
54.867
59.854
67.3562
78.7088
96.1892
123.656
167.204
240.249
322.872
344.665
239.188
161.401
116.723
78.5289
52.5613
35.7618
25.1793
18.198
4.23283
4.78483
5.96046
5.34068
4.33816
3.5543
2.93353
2.39457
1.93269
1.55314
1.25027
1.01826
0.846835
0.732236
0.67149
0.657914
0.65936
0.565799
-0.00106623
44.4088
44.8757
46.0963
48.2567
51.6923
57.0731
65.6431
79.7383
104.017
157.325
249.039
439.999
599.158
226.057
165.891
112.301
65.0678
38.1057
22.5068
13.3486
7.69022
6.88866
6.83858
2.88211
3.30526e-05
-1.34064
-1.95304
-2.31814
-2.55718
-2.69357
-2.75411
-2.7696
-2.74318
-2.68293
-2.58359
-2.43245
-2.20397
-1.85462
-1.29114
-0.234816
39.4304
39.5626
39.9621
40.722
42.0051
44.1282
47.6581
53.605
63.7938
102.536
178.03
408.625
1925.76
216.103
80.8461
32.1205
15.017
5.84087
-4.32628
-7.43754
12.2588
10.8858
4.84374
1.4907
0.312607
-0.148024
-0.452027
-0.675341
-0.821762
-0.914163
-0.976044
-1.01646
-1.03063
-1.0087
-0.93325
-0.776661
-0.501223
-0.0443567
0.664188
34.4355
34.2245
33.7311
32.9448
31.8086
30.1746
27.7081
23.6216
15.8551
18.7419
4.30267
-148.742
-964.494
-1001.45
-293.981
-94.1287
-43.8201
-25.8007
-17.7309
-11.9483
-4.42752
-8.9923
-8.1748
-7.19802
-6.21879
-5.02449
-3.8915
-2.97943
-2.26883
-1.70344
-1.24484
-0.870374
-0.56165
-0.301678
-0.0666416
0.159973
0.391217
0.619496
0.787611
0.680648
29.8469
29.3003
27.9665
25.7342
22.3661
17.3651
9.82344
-1.9522
-21.2354
-43.2075
-111.319
-247.652
-448.099
-473.585
-299.271
-163.544
-94.5217
-58.4619
-38.3119
-25.425
-15.9386
-10.0496
-6.41071
-3.68564
-1.92403
-0.779911
0.0459293
0.647362
1.06643
1.35148
1.54563
1.67609
1.76065
1.81088
1.83913
1.84987
1.83542
1.76238
1.5425
0.968114
26.0298
25.2079
23.1929
19.8025
14.702
7.24528
-3.65123
-19.7633
-44.0636
-81.6879
-134.581
-201.873
-263.373
-271.795
-219.493
-153.059
-102.925
-70.6623
-49.5969
-34.9276
-24.508
-17.6384
-12.6938
-9.1063
-6.61109
-4.83185
-3.45991
-2.36646
-1.50253
-0.824386
-0.287248
0.142053
0.486495
0.757702
0.966336
1.11259
1.18346
1.14536
0.939283
0.492443
23.3023
22.2948
19.807
15.6347
9.42059
0.506881
-12.0925
-29.7215
-54.0673
-86.8711
-128.249
-173.688
-210.008
-217.773
-190.85
-146.899
-106.701
-77.1655
-56.2409
-40.8972
-29.442
-20.9929
-14.6462
-9.95871
-6.55588
-4.08195
-2.2511
-0.882564
0.133864
0.880058
1.42322
1.81397
2.08739
2.26472
2.35842
2.36951
2.28441
2.06897
1.6612
0.946245
21.8818
20.7798
18.0537
13.4941
6.74783
-2.81639
-16.0771
-34.08
-57.8398
-87.8169
-122.725
-157.81
-184.085
-190.88
-173.956
-141.711
-107.786
-80.0356
-59.2078
-43.5511
-31.6553
-22.7088
-16.0695
-11.1979
-7.65662
-5.0907
-3.21459
-1.82249
-0.780981
-0.000306568
0.585274
1.02386
1.34807
1.57625
1.7164
1.76708
1.71492
1.5302
1.17293
0.60579
57.8241
58.8351
61.3439
65.4228
71.1377
78.6439
88.0915
99.4517
112.327
125.67
137.475
144.575
143.78
133.92
117.22
98.1244
79.8778
63.8234
50.3689
39.5154
30.9905
24.3483
19.1882
15.2397
12.2469
9.94861
8.1617
6.77818
5.71733
4.90516
4.27927
3.79019
3.40091
3.08111
2.80081
2.52824
2.22713
1.85119
1.34006
0.618646
56.7879
57.771
60.2242
64.2445
69.9461
77.5689
87.4034
99.6372
114.15
130.149
145.625
155.887
155.253
142.118
121.042
98.8675
78.8651
61.8769
48.0951
37.3307
29.1044
22.6256
17.5791
13.8844
11.1862
9.11191
7.48112
6.21199
5.23189
4.47083
3.87659
3.40835
3.0334
2.72477
2.45764
2.20544
1.93566
1.6037
1.14958
0.507267
54.7441
55.6627
57.9803
61.8342
67.4232
75.1412
85.5536
99.3161
116.996
138.553
161.416
179.029
179.015
158.201
128.748
101.273
77.8412
58.8974
44.3967
33.7369
26.2284
20.0313
14.9982
11.5577
9.13549
7.27319
5.84898
4.79182
4.00608
3.41161
2.9579
2.61295
2.3515
2.15008
1.99098
1.8551
1.71729
1.53296
1.21974
0.618729
51.755
52.5596
54.6191
58.1107
63.3247
70.8331
81.5673
96.9376
118.994
150.635
183.907
220.794
225.556
189.614
145.72
111.471
82.0951
59.5121
43.2487
31.7899
19.5614
13.965
10.7959
8.96479
7.13926
5.4312
4.10318
3.12366
2.37782
1.79635
1.34298
0.997895
0.739109
0.54676
0.41529
0.338854
0.30952
0.297618
0.221756
-0.130881
47.942
48.5691
50.205
53.0424
57.4182
64.0049
73.9925
89.4278
113.848
154.771
222.225
299.945
320.783
221.088
151.164
109.756
72.6824
47.7152
31.8773
22.0591
15.3671
-2.36438
-0.904431
1.4427
1.55484
0.997799
0.519855
0.13447
-0.211989
-0.513285
-0.760522
-0.944575
-1.07362
-1.15004
-1.16275
-1.09663
-0.928178
-0.644501
-0.299914
-0.244154
43.4981
43.8821
44.9132
46.7561
49.7032
54.3471
61.7988
74.1806
95.8284
146.05
233.639
418.676
572.147
205.785
159.815
108.699
60.4698
33.7616
18.8447
10.0977
4.46645
-5.3565
-1.88273
-1.79511
-2.76597
-3.33473
-3.60599
-3.82878
-4.04137
-4.21695
-4.34479
-4.44239
-4.49024
-4.48988
-4.42068
-4.24578
-3.90121
-3.27145
-2.14983
-0.194343
38.7111
38.7927
39.0694
39.6274
40.609
42.2919
45.1864
50.241
59.2439
95.9877
169.532
401.454
1890.13
200.942
84.3515
28.9016
10.0066
0.739844
-8.66176
-15.6181
13.6291
11.3846
4.61691
0.657444
-1.20586
-2.28562
-3.07849
-3.67695
-4.10719
-4.406
-4.60092
-4.71532
-4.76034
-4.71175
-4.54097
-4.18855
-3.5519
-2.46211
-0.706706
33.9262
33.6858
33.144
32.2893
31.0669
29.3399
26.8175
22.8236
15.5858
18.5914
6.39517
-134.099
-908.585
-960.604
-269.441
-85.2951
-42.0474
-26.7417
-19.6682
-14.1844
-6.09985
-7.71413
-6.97436
-6.40262
-5.719
-4.83175
-3.98453
-3.31307
-2.80747
-2.42161
-2.12075
-1.87168
-1.67696
-1.50818
-1.32755
-1.10443
-0.800986
-0.381806
0.141188
0.522252
29.5247
28.9797
27.6709
25.4936
22.2355
17.4517
10.3342
-0.616607
-18.3056
-38.7062
-101.13
-227.313
-415.187
-439.149
-275.01
-150.536
-88.2344
-55.6949
-37.4238
-25.6822
-17.0362
-11.8561
-7.32098
-4.04405
-2.28209
-1.33764
-0.724902
-0.315999
-0.0681181
0.0705787
0.147036
0.190698
0.215952
0.239278
0.277585
0.342217
0.438531
0.556008
0.631341
0.489586
25.865
25.0722
23.1368
19.8998
15.0618
8.04478
-2.11803
-17.0054
-39.2587
-73.4492
-121.438
-182.752
-239.194
-247.473
-200.485
-140.688
-95.6308
-66.5063
-47.3595
-34.006
-24.5888
-18.4616
-13.1147
-9.1804
-6.67349
-5.00424
-3.74048
-2.74048
-1.96166
-1.36007
-0.889116
-0.513797
-0.21209
0.0320284
0.234475
0.400582
0.526659
0.592588
0.550157
0.329702
23.2475
22.2871
19.9197
15.9656
10.1089
1.7626
-9.95188
-26.2237
-48.545
-78.4669
-116.131
-157.57
-190.979
-198.582
-174.668
-135.217
-99.037
-72.3067
-53.2303
-39.1833
-28.6896
-20.9041
-14.7919
-10.1691
-6.84443
-4.46958
-2.73222
-1.44619
-0.503698
0.176729
0.663568
1.00915
1.24982
1.40941
1.50457
1.53965
1.50652
1.38096
1.11575
0.636823
21.884
20.8387
18.2534
13.9441
7.60065
-1.34051
-13.6621
-30.2845
-52.1
-79.5115
-111.376
-143.46
-167.691
-174.367
-159.529
-130.72
-100.16
-74.9788
-55.9423
-41.5587
-30.5963
-22.3082
-16.0552
-11.3528
-7.89269
-5.39326
-3.57921
-2.24104
-1.24582
-0.50585
0.0439158
0.452291
0.753026
0.967448
1.10735
1.17421
1.15871
1.0402
0.790938
0.402733
56.0715
56.9401
59.1088
62.6331
67.552
73.9772
82.012
91.6018
102.379
113.438
123.094
128.747
127.778
119.143
104.674
88.0409
71.9579
57.6419
45.5545
35.7698
28.0804
22.0975
17.4279
13.7982
11.0149
8.87896
7.22548
5.94609
4.96253
4.20747
3.62695
3.16751
2.79862
2.49792
2.23983
1.9992
1.74762
1.44694
1.04646
0.472057
55.0746
55.9149
58.0271
61.4877
66.3764
72.8749
81.202
91.4798
103.563
116.75
129.349
137.507
136.746
125.464
107.438
88.2942
70.7349
55.6296
43.3111
33.6927
26.3925
20.6809
16.1779
12.7394
10.1594
8.16966
6.6056
5.38463
4.43966
3.70814
3.14997
2.70485
2.34713
2.05651
1.81603
1.60406
1.39543
1.15665
0.838775
0.369916
53.1118
53.8888
55.868
59.1606
63.9169
70.4459
79.1928
90.6636
105.274
122.937
141.563
155.743
155.331
137.774
113.049
89.6028
69.1256
52.3473
39.4834
30.1614
24.0147
18.8224
14.0606
10.6178
8.2857
6.56113
5.23279
4.22631
3.46371
2.8778
2.41038
2.05086
1.77712
1.5661
1.40824
1.29403
1.21222
1.13513
0.995762
0.606067
50.2495
50.9175
52.6529
55.6001
59.9851
66.2645
75.1848
87.8705
105.947
131.729
161.751
192.851
196.566
165.552
128.505
98.9073
72.7246
52.5729
38.1459
28.2835
19.2803
16.569
11.3571
7.58221
5.09506
3.28846
1.97654
1.05428
0.403596
-0.0736176
-0.436626
-0.702479
-0.889069
-1.01845
-1.08577
-1.07735
-0.977332
-0.776157
-0.498846
-0.324764
46.6093
47.1133
48.4598
50.8048
54.4141
59.828
68.0039
80.5941
100.478
136.561
193.567
260.85
278.68
190.659
134.083
96.9479
62.7751
40.2698
26.3697
18.35
15.5743
7.50311
5.08814
3.62853
2.06936
0.683598
-0.369088
-1.17276
-1.80303
-2.3051
-2.70703
-3.00666
-3.21462
-3.34609
-3.38426
-3.28608
-2.99905
-2.43754
-1.53131
-0.545335
42.3773
42.6639
43.4644
44.9134
47.242
50.9227
56.8451
66.7301
84.1509
128.222
206.412
375.326
517.036
172.959
156.853
96.8514
49.1153
24.4197
11.521
4.25722
-3.33516
-31.7266
-28.6051
-26.5268
-25.4677
-24.2852
-23.0984
-22.0935
-21.2664
-20.5512
-19.9081
-19.3372
-18.7969
-18.2464
-17.6484
-16.9397
-15.9945
-14.5532
-12.034
-6.97415
37.8291
37.8513
37.978
38.2831
38.8758
39.9658
41.9542
45.6045
52.4095
84.6576
151.593
372.137
1822.54
270.99
70.4785
14.1158
-3.13396
-10.1156
-15.5992
-20.5872
-3.38668
-5.48487
-10.1596
-12.5618
-13.4147
-13.7269
-13.8713
-13.9145
-13.8645
-13.7425
-13.5865
-13.364
-13.0829
-12.7207
-12.2141
-11.4454
-10.1753
-7.95072
-4.05818
33.2991
33.0334
32.4326
31.4876
30.1429
28.2685
25.6056
21.5801
14.7352
17.2409
7.01145
-118.496
-829.719
-854.221
-232.922
-77.7694
-43.7484
-31.2063
-24.7321
-19.3412
-13.6819
-22.2247
-17.7553
-13.8251
-11.6259
-10.0577
-8.81762
-7.88918
-7.21195
-6.70825
-6.32262
-6.00994
-5.75459
-5.51985
-5.26192
-4.9253
-4.43297
-3.66451
-2.47873
-0.883964
29.136
28.5988
27.3162
25.2008
22.0669
17.5315
10.9074
0.94086
-14.7661
-32.8878
-87.0146
-196.76
-361.545
-380.98
-238.528
-133.235
-80.7944
-52.8286
-36.8028
-26.6853
-20.7032
-19.1882
-12.7231
-7.64993
-5.13956
-3.84313
-2.98184
-2.3763
-1.96964
-1.69823
-1.50767
-1.36619
-1.25435
-1.14419
-1.01481
-0.841855
-0.595901
-0.248605
0.185519
0.506054
25.6719
24.9144
23.0784
20.0236
15.4995
9.01229
-0.253447
-13.6163
-33.2589
-62.9219
-104.096
-156.526
-204.832
-212.783
-174.194
-124.399
-86.3801
-61.297
-44.5079
-32.7926
-24.8127
-20.1304
-14.8631
-10.6347
-7.90911
-6.08391
-4.69381
-3.59309
-2.73606
-2.0737
-1.55595
-1.14365
-0.813875
-0.540071
-0.303947
-0.0908704
0.108225
0.290448
0.420254
0.390374
23.1941
22.2908
20.0691
16.3774
10.9525
3.29635
-7.33161
-21.9197
-41.6869
-67.8796
-100.562
-136.358
-165.424
-172.603
-153.038
-119.991
-89.2485
-66.1011
-49.297
-36.8282
-27.5492
-20.7449
-15.2677
-10.8949
-7.63618
-5.26944
-3.51885
-2.2066
-1.22856
-0.506551
0.0253549
0.417675
0.705853
0.916081
1.06598
1.16437
1.21007
1.1868
1.05162
0.702334
21.9024
20.9243
18.5085
14.5
8.64208
0.458222
-10.71
-25.6257
-45.0086
-69.1496
-97.0333
-125.051
-146.362
-152.692
-140.57
-116.473
-90.3993
-68.516
-51.7056
-38.8759
-29.0608
-21.6366
-15.9912
-11.6238
-8.31522
-5.87582
-4.07659
-2.72802
-1.70757
-0.934402
-0.348098
0.0975812
0.435695
0.688767
0.870126
0.984899
1.02812
0.983657
0.823684
0.508963
54.1118
54.8282
56.6266
59.5441
63.5908
68.8289
75.3059
82.9309
91.3549
99.8122
106.961
110.857
109.518
102.171
90.2421
76.4853
62.9909
50.7777
40.3066
31.7055
24.839
19.4388
15.2389
11.9981
9.50262
7.56522
6.04927
4.86669
3.95182
3.24683
2.71813
2.29785
1.96056
1.6934
1.46885
1.26504
1.06361
0.833229
0.543011
0.165226
53.1587
53.8471
55.588
58.4356
62.4315
67.6902
74.3437
82.4271
91.7412
101.635
110.686
116.309
115.076
105.834
91.425
75.9642
61.4611
48.7024
38.0933
29.6199
22.9652
17.7978
13.7978
10.7539
8.43302
6.61689
5.1749
4.03421
3.13593
2.41843
1.94888
1.55492
1.23347
0.970706
0.768065
0.60625
0.457039
0.303118
0.123446
-0.0746862
51.2869
51.9144
53.5251
56.2011
60.0385
65.2462
72.1208
80.9695
91.9744
104.883
118.07
127.455
126.214
112.408
93.364
75.1129
58.7258
44.8571
33.9281
25.6499
19.278
14.7153
10.983
8.15216
6.07415
4.47833
3.24046
2.31026
1.60875
1.10207
0.639437
0.321853
0.105888
-0.0361521
-0.12617
-0.16355
-0.154068
-0.102559
-0.033542
-0.00824708
48.5674
49.0925
50.4745
52.8216
56.286
61.1859
68.0328
77.5617
90.752
108.79
133.341
155.371
157.024
133.07
104.741
81.531
60.394
43.7589
31.6096
23.0248
11.9401
9.19135
6.15099
3.48544
1.45519
-0.152824
-1.42303
-2.35627
-3.00478
-3.46257
-3.8012
-4.01655
-4.1327
-4.1788
-4.15287
-4.03009
-3.78816
-3.37803
-2.72368
-1.66497
45.1315
45.4964
46.5269
48.3278
51.0797
55.1621
61.2275
70.3742
84.4483
112.988
153.137
200.494
210.059
142.084
102.58
74.4146
47.289
29.1764
17.882
11.4421
9.81186
-2.42572
-3.88849
-4.86443
-6.19155
-7.34105
-8.23899
-8.90206
-9.31187
-9.5596
-9.7045
-9.77261
-9.73069
-9.58808
-9.38789
-9.04752
-8.49391
-7.58257
-6.06971
-3.58759
41.1299
41.3112
41.8607
42.873
44.505
47.0753
51.1776
57.9308
69.6008
103.269
162.512
290.607
396.492
105.179
117.869
59.7626
20.9958
1.69337
-7.98383
-12.4716
-9.85264
-23.686
-26.0449
-30.4796
-32.0242
-32.0171
-31.461
-30.7654
-30.0656
-29.3425
-28.5936
-27.8067
-27.0329
-26.2552
-25.3786
-24.3486
-23.0209
-21.0459
-17.6016
-10.6428
36.8401
36.8048
36.7694
36.7933
36.9417
37.3362
38.2112
40.0039
43.553
67.5862
118.408
300.295
1642.42
263.647
-16.4425
-60.5889
-69.2586
-70.2249
-68.7176
-63.8277
-36.3049
-35.2376
-37.3959
-37.6123
-36.6466
-35.4562
-34.3236
-33.2655
-32.2506
-31.2637
-30.3214
-29.3896
-28.4207
-27.4181
-26.2863
-24.8662
-22.7809
-19.1574
-11.7299
32.6041
32.3132
31.6462
30.5968
29.106
27.0426
24.1601
19.9588
13.2882
14.24
5.11141
-92.7345
-657.532
-648.678
-189.571
-81.2637
-55.8464
-44.4492
-37.6577
-31.9717
-29.1424
-31.4085
-26.8521
-22.7752
-20.3557
-18.5456
-17.1025
-15.9894
-15.1262
-14.4374
-13.8679
-13.3825
-12.9649
-12.5342
-12.0733
-11.5227
-10.7753
-9.63764
-7.74968
-4.37893
28.7106
28.1932
26.9277
24.8747
21.8714
17.5968
11.4953
2.60414
-10.7648
-26.1504
-69.2183
-152.876
-276.773
-292.929
-189.797
-112.316
-72.0047
-49.184
-35.4518
-26.7613
-23.9889
-18.7919
-14.8766
-11.7535
-9.86429
-8.59386
-7.61103
-6.8385
-6.23592
-5.76059
-5.37511
-5.05152
-4.77488
-4.51126
-4.23614
-3.91916
-3.51395
-2.95409
-2.14767
-0.974358
25.4655
24.7404
23.0193
20.1614
15.9768
10.0685
1.79167
-9.86156
-26.5003
-50.8268
-83.6635
-124.268
-160.974
-168.534
-141.223
-104.231
-74.6453
-54.1269
-39.7862
-29.4994
-22.3151
-18.2861
-14.6221
-11.5357
-9.22429
-7.48939
-6.12604
-5.0397
-4.18018
-3.50106
-2.96
-2.5218
-2.16354
-1.8568
-1.58117
-1.31846
-1.05369
-0.773607
-0.472518
-0.141669
23.1483
22.3084
20.2443
16.8383
11.8851
4.98678
-4.44029
-17.151
-34.0289
-55.9076
-82.657
-111.473
-134.89
-141.197
-126.969
-101.935
-77.6255
-58.5663
-44.2498
-33.3878
-25.1769
-19.1673
-14.5401
-10.8865
-8.09951
-6.01606
-4.44591
-3.2507
-2.3395
-1.64552
-1.11508
-0.707172
-0.391647
-0.145277
0.0481011
0.197859
0.305003
0.361561
0.34977
0.255501
21.9387
21.0312
18.8025
15.1223
9.79521
2.44321
-7.45186
-20.4715
-37.1253
-57.5423
-80.8006
-103.957
-121.608
-127.305
-118.446
-99.6572
-78.8104
-60.7141
-46.382
-35.2071
-26.5361
-19.9333
-14.9541
-11.1551
-8.26776
-6.09444
-4.45601
-3.20942
-2.25516
-1.52345
-0.961717
-0.528998
-0.195212
0.0603629
0.251044
0.383236
0.453597
0.450692
0.363072
0.212208
52.0843
52.6497
54.0798
56.3909
59.5667
63.6222
68.5514
74.2307
80.3333
86.2294
90.9069
93.0105
91.2259
85.0986
75.6537
64.7715
53.9377
43.9373
35.1805
27.8391
21.8704
17.1206
13.4258
10.6246
8.4855
6.81102
5.48965
4.45726
3.66032
3.0488
2.5824
2.21653
1.92606
1.69255
1.49577
1.31549
1.12863
0.906725
0.614695
0.211489
51.1782
51.7155
53.0881
55.3234
58.4279
62.4513
67.4414
73.351
79.9344
86.607
92.2626
95.1087
93.1397
85.7764
74.9593
63.2751
52.0499
41.8675
33.1341
25.9599
20.1831
15.5917
12.0668
9.50098
7.58168
6.07792
4.8866
3.94906
3.2138
2.63789
2.198
1.84492
1.56026
1.32955
1.141
0.98022
0.827379
0.658932
0.441873
0.134986
49.4017
49.88
51.1275
53.1881
56.1084
59.9996
65.0113
71.2565
78.694
86.9291
94.784
99.4771
96.7731
86.0193
72.3454
59.3919
47.4692
36.8571
28.0637
21.069
15.4878
11.1807
8.49771
6.60999
5.03372
3.75201
2.78543
2.08332
1.57394
1.2042
0.923824
0.726311
0.591898
0.502717
0.448943
0.428779
0.437022
0.458267
0.44989
0.286409
46.8288
47.2123
48.2476
49.9981
52.5444
56.0692
60.849
67.2304
75.5707
86.0933
97.3447
106.119
101.54
83.6342
66.5659
53.0089
40.5553
30.0012
21.7885
15.2516
8.80947
2.60268
2.62714
2.95893
2.30263
1.35891
0.533432
-0.115519
-0.616809
-1.00558
-1.30544
-1.51915
-1.65653
-1.73121
-1.74115
-1.67048
-1.50336
-1.21794
-0.811561
-0.367017
43.5861
43.8347
44.554
45.8178
47.713
50.4656
54.4188
60.0903
68.1791
87.5431
107.85
128.869
124.819
84.9744
62.4868
48.4414
31.8388
19.4903
11.4397
6.08086
0.843512
-13.1066
-10.7811
-7.90067
-6.63143
-6.03623
-5.65877
-5.39876
-5.21735
-5.0944
-5.00985
-4.93853
-4.85971
-4.7619
-4.61404
-4.36849
-3.96436
-3.3058
-2.30039
-1.03433
39.8437
39.9268
40.2271
40.8062
41.7428
43.2032
45.4779
49.0492
54.7275
75.4473
101.785
147.079
168.31
28.4758
24.2865
6.26543
-4.41004
-9.20854
-12.3152
-14.3433
-19.9728
-12.1895
-14.1973
-16.4649
-17.2189
-17.3146
-17.2038
-17.0094
-16.7624
-16.4651
-16.1193
-15.7138
-15.2793
-14.8159
-14.2659
-13.5764
-12.6438
-11.2426
-8.9448
-5.04576
35.8523
35.7393
35.5406
35.285
34.9892
34.6858
34.4288
34.2867
34.3062
47.6647
58.8916
128.857
169.078
-709.581
-136.911
-96.0456
-69.3597
-61.9535
-56.4923
-52.6069
-68.061
-39.9438
-37.8491
-35.9082
-34.0414
-32.1666
-30.4851
-29.0352
-27.7666
-26.6299
-25.5932
-24.6384
-23.7457
-22.858
-21.9418
-20.9319
-19.71
-17.9914
-15.1508
-9.58345
31.8984
31.577
30.8479
29.6957
28.0599
25.8037
22.6773
18.2105
11.457
9.97531
-11.238
-79.4924
-302.808
-256.315
-109.962
-62.5464
-40.738
-29.8671
-23.541
-18.5884
-10.4099
4.91931
2.03746
-1.68794
-3.33926
-4.11334
-4.6099
-4.95993
-5.19481
-5.3421
-5.42533
-5.46646
-5.45988
-5.38115
-5.21492
-4.93748
-4.48152
-3.72166
-2.49673
-0.850277
28.2786
27.7632
26.5374
24.5499
21.6778
17.6614
12.0579
4.10728
-7.59788
-25.9123
-49.2474
-102.889
-173.752
-187.469
-132.004
-85.5927
-57.9873
-40.5044
-29.1986
-21.1039
-10.7156
-1.52035
-2.46818
-3.95877
-4.03873
-3.6225
-3.20152
-2.84129
-2.52947
-2.26238
-2.03602
-1.84044
-1.66874
-1.50849
-1.32998
-1.1126
-0.831832
-0.454217
0.0129059
0.390435
25.2689
24.5943
22.9684
20.3085
16.4671
11.1407
3.85417
-6.10014
-19.7355
-38.3477
-62.6968
-90.9601
-115.676
-122.223
-106.509
-82.4097
-61.3009
-45.5056
-33.7843
-24.6834
-17.0778
-11.9284
-9.06432
-7.00873
-5.18043
-3.67966
-2.5512
-1.71756
-1.09531
-0.628421
-0.276876
-0.00885549
0.196966
0.362123
0.508461
0.646869
0.78143
0.90294
0.96025
0.787986
23.1171
22.3387
20.4351
17.3179
12.8408
6.70546
-1.51476
-12.3411
-26.3133
-43.7818
-64.354
-85.9767
-103.196
-108.719
-100.012
-82.9318
-65.1782
-50.3216
-38.5834
-29.2761
-21.8339
-16.0759
-11.6788
-8.44556
-6.02964
-4.19891
-2.81562
-1.76989
-0.974806
-0.367329
0.0976428
0.453958
0.72653
0.934188
1.08988
1.19959
1.25856
1.24621
1.11342
0.754536
21.9947
21.1629
19.1184
15.7702
10.9797
4.46509
-4.15184
-15.2676
-29.1764
-45.8232
-64.3502
-82.4976
-96.2817
-101.232
-95.538
-82.1643
-66.5045
-52.2282
-40.4426
-30.9433
-23.3405
-17.3664
-12.7893
-9.3517
-6.74777
-4.74237
-3.19436
-2.00508
-1.09406
-0.396786
0.135948
0.541324
0.847378
1.07367
1.23204
1.32722
1.35211
1.28646
1.09051
0.696899
50.1309
50.5581
51.6493
53.4056
55.7866
58.7708
62.3119
66.2704
70.3559
74.0765
76.7145
77.3909
75.3268
70.3217
63.0518
54.6972
46.2363
38.2554
31.1117
25.005
19.9726
15.9444
12.8056
10.4011
8.52916
7.0342
5.83539
4.88388
4.1356
3.54818
3.08595
2.7173
2.4172
2.16507
1.94157
1.72631
1.49366
1.21195
0.840958
0.329939
49.2708
49.6709
50.7047
52.383
54.6768
57.5871
61.0976
65.1088
69.3669
73.387
76.3796
77.2515
74.9424
69.275
61.3919
52.7748
44.2719
36.3245
29.3018
23.402
18.6096
14.8262
11.9541
9.79295
8.09943
6.73145
5.62735
4.74182
4.03068
3.45652
2.99257
2.61465
2.3021
2.0379
1.80638
1.59174
1.37139
1.11424
0.776645
0.302946
47.5879
47.9323
48.844
50.3494
52.4419
55.158
58.5368
62.5581
67.0538
71.5835
75.2402
76.4494
73.3334
65.9277
56.8693
48.0972
39.7667
31.9665
25.1796
19.6257
15.2205
11.9198
9.72789
8.02629
6.51216
5.23161
4.23033
3.47049
2.89299
2.4503
2.10898
1.84635
1.64585
1.4924
1.37315
1.2774
1.18877
1.07694
0.881099
0.471815
45.1596
45.4184
46.1351
47.3449
49.0723
51.386
54.389
58.1651
62.697
67.6909
72.2168