/*--------------------------------*- C++ -*----------------------------------*\
| =========                 |                                                 |
| \\      /  F ield         | OpenFOAM: The Open Source CFD Toolbox           |
|  \\    /   O peration     | Version:  2306                                  |
|   \\  /    A nd           | Website:  www.openfoam.com                      |
|    \\/     M anipulation  |                                                 |
\*---------------------------------------------------------------------------*/
FoamFile
{
    version     2.0;
    format      ascii;
    arch        "LSB;label=32;scalar=64";
    class       surfaceScalarField;
    location    "0.9";
    object      phi;
}
// * * * * * * * * * * * * * * * * * * * * * * * * * * * * * * * * * * * * * //

dimensions      [0 3 -1 0 0 0 0];

oriented        oriented;

internalField   nonuniform List<scalar> 
338621
(
24.9952
0.00223948
0.00122753
24.9877
0.00487457
0.00257016
24.9757
0.00782544
0.00412107
24.9587
0.0109492
0.00602437
24.9356
0.0143561
0.00859203
24.9031
0.0204594
0.0119892
24.8566
0.0300481
0.0163313
24.7939
0.0407511
0.0219232
24.7322
0.0326799
0.0289863
24.6891
0.00565716
0.0373997
24.6608
-0.0184774
0.0469646
24.5866
0.0172679
0.05709
24.6149
-0.0953877
0.0673311
24.7452
-0.206799
0.0767487
24.7871
-0.126536
0.0848455
24.8196
-0.123962
0.0914474
24.8487
-0.125856
0.0967246
24.8722
-0.124713
0.101152
24.8918
-0.12436
0.104732
24.9182
-0.134127
0.107667
24.9475
-0.139205
0.109844
24.9695
-0.133658
0.11163
24.986
-0.129746
0.113139
24.9995
-0.127728
0.114266
25.0108
-0.126541
0.115177
25.0204
-0.125515
0.115906
25.0289
-0.124935
0.116411
25.0364
-0.12421
0.116706
25.043
-0.123476
0.116912
25.0489
-0.122985
0.117024
25.0544
-0.122495
0.117044
25.0595
-0.122034
0.116964
25.0641
-0.121555
0.11691
25.0683
-0.121085
0.116869
25.0722
-0.12067
0.116805
25.0761
-0.120641
0.116745
25.0799
-0.120516
0.116643
25.0839
-0.120501
0.116567
25.0881
-0.120649
0.116469
-0.121235
0.116105
24.9951
0.00447794
0.00120197
24.9876
0.0098991
0.00248944
24.9751
0.0161832
0.00402698
24.9579
0.0221487
0.0059166
24.9348
0.0289203
0.00846465
24.9055
0.0379715
0.0117583
24.87
0.0493069
0.0161527
24.8244
0.0643889
0.0218391
24.7601
0.0679295
0.0290973
24.6855
0.0422961
0.0379678
24.6426
-0.0238601
0.0483779
24.6292
-0.0284847
0.0594145
24.6676
-0.204593
0.0710938
24.7515
-0.372073
0.0815721
24.832
-0.297008
0.0901887
24.9006
-0.289589
0.0970067
24.9532
-0.280925
0.102407
24.9956
-0.274024
0.10683
25.0406
-0.27984
0.110393
25.0743
-0.280998
0.11311
25.094
-0.274092
0.115199
25.1075
-0.264029
0.116848
25.1163
-0.256903
0.118348
25.123
-0.253975
0.119535
25.1279
-0.251944
0.120476
25.1318
-0.250587
0.121181
25.1344
-0.249279
0.121737
25.1367
-0.248703
0.122121
25.1391
-0.248205
0.122389
25.1409
-0.247426
0.122559
25.1426
-0.246839
0.122644
25.1439
-0.245957
0.122662
25.1453
-0.245565
0.122655
25.1465
-0.244934
0.122622
25.1476
-0.244393
0.122562
25.1488
-0.24427
0.122518
25.15
-0.244125
0.122394
25.1514
-0.244243
0.122292
25.1535
-0.244869
0.122108
-0.245149
0.121693
24.9954
0.00639991
0.00114483
24.9879
0.015022
0.00237716
24.9761
0.0241243
0.00381948
24.9583
0.0342231
0.00570569
24.934
0.0448974
0.0081754
24.903
0.0575384
0.0114312
24.8632
0.0731646
0.0158729
24.8141
0.091687
0.0216932
24.7453
0.107354
0.0293776
24.6474
0.10099
0.0392325
24.5707
0.00587498
0.0512873
-0.0054465
0.00577458
-0.0046427
24.6674
-0.0380137
0.0650887
-0.0576609
-0.0372883
-0.0570485
24.5597
-0.0100891
0.0778763
-0.0942132
0.0225021
-0.0926755
24.7324
-0.180723
0.0896225
-0.122256
-0.210633
-0.120477
24.8259
-0.127088
0.0982402
-0.119571
-0.124907
-0.117061
24.8869
-0.1161
0.104752
-0.114144
-0.113458
-0.111818
24.9412
-0.112354
0.109927
-0.112645
-0.110296
-0.110006
25.0074
-0.115114
0.114203
-0.114171
-0.113005
-0.112181
25.0506
-0.111783
0.1176
-0.110455
-0.109821
-0.108659
25.0762
-0.108133
0.11999
-0.107106
-0.106223
-0.105223
25.0938
-0.413264
0.12164
25.1066
-0.399874
0.122991
25.114
-0.388742
0.124419
25.1193
-0.385068
0.12576
25.1235
-0.383007
0.126921
25.1264
-0.38138
0.127834
25.1284
-0.379766
0.128518
25.1302
-0.379487
0.129001
25.1312
-0.378506
0.129307
25.1325
-0.378178
0.129463
25.1333
-0.377179
0.129489
25.1342
-0.376266
0.129408
25.1347
-0.375248
0.129195
25.1352
-0.374426
0.129008
25.1353
-0.373163
0.128691
25.1352
-0.37258
0.128372
25.1354
-0.372289
0.127945
25.1358
-0.372156
0.127504
25.1363
-0.372335
0.126974
-0.372713
0.126274
24.9957
0.00861699
0.00105883
24.9891
0.0194215
0.00220662
24.9774
0.0321992
0.00353047
24.9607
0.045576
0.00533239
24.9362
0.0616355
0.00765281
24.9019
0.0809918
0.0107985
24.8565
0.103436
0.015129
24.7984
0.128754
0.020975
24.7318
0.144929
0.0289785
6.14175
0.0373287
0.039842
0.054551
0.0382543
0.0543746
6.16377
6.14107
6.16179
6.12415
0.0176442
0.00583777
-6.11107
6.09896
-0.0335829
0.0076934
-6.10292
6.12447
-0.0411358
0.00952524
-6.11674
6.14367
-0.218926
0.0113015
-6.16238
6.17662
-0.153819
0.0125095
-6.18994
6.20069
-0.140087
0.013234
-6.21214
6.22658
-0.140661
0.0138628
-6.2387
6.24607
-0.136931
0.0144445
-6.25205
6.2574
-0.132071
0.0149327
-6.26194
6.26602
-0.127558
0.0153375
25.1063
-0.139714
0.127268
-0.140667
-0.137886
-0.139396
-6.26966
-6.27447
-6.27013
-6.27485
25.1107
-0.533013
0.128691
25.1116
-0.519521
0.129918
25.1124
-0.516876
0.131059
25.1113
-0.514238
0.132268
25.1091
-0.512571
0.133427
25.1071
-0.512191
0.134444
25.1044
-0.512111
0.135269
25.1015
-0.511423
0.135875
25.0982
-0.511196
0.136253
25.095
-0.510322
0.136401
25.0914
-0.508998
0.136335
25.0873
-0.507206
0.136031
25.083
-0.505827
0.13567
25.0785
-0.503758
0.135072
25.0735
-0.501972
0.134386
25.0683
-0.500595
0.133508
25.063
-0.499299
0.132479
25.0586
-0.499221
0.131322
-0.49841
0.130001
24.9973
0.00917379
0.000942378
24.9915
0.0232973
0.00196997
24.9818
0.0387115
0.00314958
24.9664
0.0561445
0.00476719
24.9436
0.077542
0.00684854
24.9103
0.104618
0.00968366
24.8604
0.139709
0.0135919
24.7861
0.18393
0.01907
6.17136
0.233848
0.0266522
6.16402
6.17115
6.16401
6.15524
0.0494398
0.00400711
6.12982
0.00568829
-6.15775
0.020184
0.0119207
0.0117207
0.0203405
-0.0419217
-6.0771
6.04303
0.00774825
-0.00210238
0.00415161
0.00380369
-0.0019656
0.0224614
-6.04284
6.06143
0.0098748
0.0293274
-0.0400715
-0.0402107
-0.0189719
0.0414971
-6.1141
6.13946
0.0120763
-0.0513242
-0.0661555
-0.104055
-0.0517632
0.235888
-6.1718
6.18361
0.0129883
-0.0493985
-0.0534503
-0.0527012
-0.0498714
0.180639
-6.19521
6.20861
0.0131871
-0.0494298
-0.0488779
-0.0486361
-0.0496605
0.170012
-6.22218
6.23402
0.0134808
-0.0475149
-0.0476496
-0.0473702
-0.0478094
0.165001
-6.24373
6.2511
0.013944
-0.0449424
-0.0450179
-0.0446939
-0.0452646
0.158596
-6.25765
6.26245
0.0145543
-0.042598
-0.0429677
-0.0426294
-0.0429444
0.151797
-6.26675
6.26905
0.0152855
-0.0405521
-0.0412032
-0.0408235
-0.0409474
0.145947
-6.27221
6.27419
-0.15823
0.0165364
25.0566
-0.622104
0.123718
-6.27441
-6.26827
-6.27594
-6.2726
25.0284
-0.61668
0.125431
24.9979
-0.612522
0.126072
24.9675
-0.610122
0.126299
24.9389
-0.610183
0.126283
24.9119
-0.611204
0.126002
24.8866
-0.612213
0.125414
24.8636
-0.612948
0.124513
24.842
-0.61294
0.123307
24.8221
-0.612285
0.121832
24.8039
-0.610866
0.120134
24.787
-0.608565
0.118231
24.7707
-0.605773
0.11628
24.7554
-0.602668
0.114202
24.7406
-0.599288
0.11206
24.7264
-0.596153
0.109814
24.7131
-0.593449
0.10743
24.7008
-0.591845
0.104919
-0.592135
0.102329
24.9999
0.00777047
0.000796779
24.9966
0.024927
0.00167471
24.989
0.0435417
0.0026822
24.9773
0.0638935
0.00398136
24.9597
0.0894259
0.00571094
24.9326
0.123697
0.00800912
24.8894
0.171788
0.0111237
24.8168
0.241026
0.0155425
6.17057
0.347837
0.0216237
6.17009
6.17059
6.16993
-0.0654074
6.14486
0.0878517
0.00328001
-0.0196542
-1.52751
1.52235
0.0241905
0.000627218
-0.0192824
-1.50414
1.49206
0.0305782
0.000789269
-1.46894
0.0523327
1.47902
-0.0635414
0.00112841
-1.53092
0.0839866
1.53965
-0.0940422
0.00132671
-1.53762
0.0600386
-0.0641459
0.00219205
1.53954
-1.54845
0.057736
-0.0624461
0.00224145
1.55092
0.0550706
-1.55647
1.55785
-0.0589748
0.00251724
0.0510854
-1.56051
1.56095
-0.0544784
0.00295674
0.0485701
-1.56123
1.56119
-0.0519409
0.00341004
0.0464777
-1.5602
1.5597
-0.0497474
0.00376905
-1.55318
0.173561
6.15698
-0.170444
0.0227749
-1.53435
-1.55542
-1.53991
23.8553
-0.700778
0.0661524
-6.09876
-5.79674
-6.12575
-5.82148
23.8617
-0.68884
0.0657699
23.8681
-0.683655
0.064726
23.8755
-0.680488
0.0629137
23.8835
-0.678973
0.0608156
23.8919
-0.678238
0.0586303
23.9009
-0.677664
0.0564292
23.9105
-0.676796
0.054283
23.9207
-0.675404
0.0522684
23.9313
-0.673337
0.0504497
23.9421
-0.670536
0.0488622
23.9532
-0.66718
0.0474864
23.9644
-0.663269
0.0463596
23.9753
-0.658952
0.045368
23.9862
-0.654621
0.0444322
23.9969
-0.65026
0.0434324
24.0073
-0.646113
0.042205
24.0172
-0.642295
0.0405514
-0.638368
0.0382883
25.003
0.00391213
0.000625093
25.0035
0.0230568
0.00132614
25.0006
0.0443116
0.00212316
24.9949
0.0665632
0.00306363
24.986
0.0940093
0.00427533
24.9723
0.131527
0.00585818
24.9524
0.183894
0.00784934
24.9207
0.262242
0.0104603
6.21266
0.388687
0.0137265
6.22069
6.21238
6.22041
-0.106249
6.197
0.11988
0.00203068
-0.0393167
-1.54173
1.53551
0.0451726
0.00036401
-0.0817004
-1.50574
1.48712
0.10003
0.000293681
0.00447294
-0.0747383
0.0749391
-0.00468506
1.13226e-05
-0.0214224
0.000448538
0.0209336
2.57052e-06
3.76821e-05
-0.218209
0.0130589
-0.0239273
-0.00174868
0.230826
-1.21779
0.0682887
-0.0837626
-0.00501298
1.23828
0.0653563
-1.28448
1.29518
-0.0685532
-0.00750297
0.0661949
-1.32729
1.33761
-0.068681
-0.00782902
0.0641383
-1.36343
1.37108
-0.0643243
-0.00746082
0.0616771
-1.38973
1.39602
-0.0614385
-0.00653033
-1.42154
0.202955
5.8234
-0.217375
-0.0239526
-1.49971
-1.37533
-1.48845
24.0274
-0.65775
-0.102349
-5.87208
-6.16658
-5.76792
-6.1615
24.0751
-0.634043
-0.102544
24.1181
-0.62473
-0.101907
24.158
-0.618776
-0.101569
24.1938
-0.613718
-0.101078
24.2254
-0.609635
-0.100182
24.253
-0.606299
-0.0989182
24.2767
-0.603268
-0.097226
24.2968
-0.600408
-0.0951731
24.3139
-0.597595
-0.0928123
24.3284
-0.594791
-0.0902502
24.3409
-0.592111
-0.0875171
24.3519
-0.589519
-0.0848022
24.3621
-0.587043
-0.0821147
24.3718
-0.584656
-0.0796276
24.3816
-0.582567
-0.0774697
24.3917
-0.580466
-0.0757704
24.4023
-0.578092
-0.0747744
-0.574701
-0.0749718
25.0047
-0.000988535
0.000487036
25.0099
0.0168773
0.000981385
25.0147
0.0379546
0.00152181
25.0186
0.0606073
0.00212443
25.0203
0.0895214
0.00276867
25.0251
0.123206
0.0035204
25.0368
0.167951
0.00424523
25.0621
0.232157
0.00478491
6.27362
0.333449
0.00488228
6.28138
6.27387
6.28357
-0.112059
6.2811
0.103993
0.000587857
-0.0447168
-1.57759
1.5792
0.043039
5.96521e-05
-0.0844652
-1.5974
1.61226
-0.00015103
0.0697498
-0.025993
-1.71246
1.75157
-0.00203601
0.0572758
-0.0211097
-0.0260895
-0.0211644
0.0983725
-1.71213
1.68291
-0.00152228
-0.0676285
0.10075
-1.60985
-0.00183424
1.59939
-0.0884636
0.0767016
-1.58503
-0.0018564
1.58214
-0.0719608
0.0555177
-1.57758
1.57666
-0.0527435
-0.0018515
0.0563854
-1.57486
1.57302
-0.0526795
-0.00186542
0.0509087
-1.57247
1.57176
-0.0482917
-0.00190907
0.0474324
-1.57064
1.57009
-0.0449183
-0.00196473
-1.56767
0.17655
6.26425
-0.156865
-0.0146419
-1.56719
-1.56727
-1.56718
25.0668
-0.538307
-0.113131
-6.26809
-6.26781
-6.26928
-6.268
25.0688
-0.52062
-0.11533
25.0672
-0.506482
-0.116664
25.0649
-0.498593
-0.117866
25.063
-0.492898
-0.119008
25.0618
-0.488444
-0.11992
25.0608
-0.484717
-0.120626
25.0598
-0.481231
-0.121027
25.0592
-0.478605
-0.121145
25.0585
-0.475963
-0.120981
25.0577
-0.47338
-0.120616
25.0571
-0.471508
-0.119944
25.0564
-0.469654
-0.119206
25.0554
-0.46774
-0.118342
25.0549
-0.466568
-0.117545
25.0545
-0.46531
-0.116906
25.0546
-0.463992
-0.11652
25.0553
-0.462259
-0.116521
-0.46023
-0.116868
25.0056
-0.00593554
0.000293816
25.0139
0.00796362
0.000628893
25.0267
0.0242028
0.000944211
25.0378
0.0483095
0.00120638
25.0529
0.0730879
0.00136819
25.0761
0.0987434
0.00133197
25.1136
0.12955
0.000940621
25.1763
0.169728
-0.000242641
6.31989
0.232167
-0.00266431
6.31801
6.32411
6.31829
-0.0892884
6.3358
0.0739758
-0.000601728
-0.033447
6.41186
0.0888452
-0.00142706
-0.0346605
-0.0336036
-0.0342782
-6.36328
-0.0338764
6.51536
0.0777412
-0.0031146
-0.0266828
-0.0338307
-0.0266979
-6.46891
-0.00813168
-6.54611
6.51302
-0.00311371
-0.00580909
0.0142211
-0.00852349
0.0444142
0.0443292
-6.53508
6.51381
-0.119758
-0.00876574
0.0380623
0.0349899
0.0323745
0.0538707
-6.44984
6.41264
-0.17365
-0.0108692
0.054357
0.0562585
0.0572103
0.0552699
-6.37302
6.34121
-0.172039
-0.0121358
0.0540028
0.0541629
0.052549
0.045618
-6.32334
6.31227
-0.154384
-0.0130085
0.0447149
0.0443643
0.0437765
0.0437669
-6.30357
6.29754
-0.15406
-0.0136104
0.0435695
0.0432619
0.043104
0.0409115
-6.29283
6.28714
-0.141816
-0.0139842
0.0404336
0.0403667
0.0397716
0.0380883
-6.28254
6.27678
-0.130177
-0.0142271
0.0376322
0.0375225
0.0369261
0.141031
-6.27491
6.27274
-0.124322
-0.0145495
25.0681
-0.405604
-0.121935
-6.26994
-6.26991
-6.2699
-6.2691
25.06
-0.389852
-0.122675
25.0564
-0.379696
-0.123177
25.0541
-0.372715
-0.123633
25.0529
-0.367722
-0.123988
25.0523
-0.363659
-0.124148
25.0522
-0.360468
-0.124094
25.0525
-0.357757
-0.123839
25.0528
-0.355459
-0.123406
25.0531
-0.353484
-0.122831
25.0535
-0.35156
-0.122188
25.0539
-0.35039
-0.121468
25.0539
-0.348922
-0.12072
25.0544
-0.34822
-0.120076
25.0548
-0.347336
-0.119573
25.055
-0.346347
-0.11925
25.0561
-0.345833
-0.119188
25.0583
-0.345066
-0.11946
-0.344432
-0.120092
25.0062
-0.0108796
0.000201294
25.0158
-0.00206888
0.00038613
25.0245
0.0150677
0.000486314
25.0408
0.0315392
0.00048999
25.0672
0.0465282
0.000241084
25.1004
0.0660421
-0.000390746
25.1475
0.0840942
-0.001632
25.2136
0.107715
-0.00394314
25.3221
0.131738
-0.00798501
25.4268
0.146093
-0.0146844
-0.0617375
-0.057508
-0.0589988
-0.0577959
25.5751
0.13493
-0.0249572
-0.0616033
-0.0652846
-0.0626625
-0.0686558
25.7103
0.0592188
-0.03944
-0.0435759
-0.0300644
-0.0474331
-0.0340971
25.5905
-0.150815
-0.0565716
0.0190358
0.121668
0.0172202
0.168826
25.5004
-0.231592
-0.0746827
0.080766
0.114328
0.0960892
0.10488
25.4334
-0.242738
-0.0895925
0.0804642
0.145927
0.0288428
0.143942
25.3485
-0.347882
-0.100536
0.133081
0.136167
0.131063
0.132996
25.2644
-0.318949
-0.107732
0.127258
0.131084
0.124571
0.128008
25.1974
-0.330229
-0.112545
0.130725
0.127879
0.127267
0.124033
25.1529
-0.310133
-0.115733
0.121024
0.118012
0.117557
0.113808
25.1278
-0.291773
-0.117838
0.110665
0.110543
0.105947
0.107625
25.1073
-0.277632
-0.119248
0.106173
0.105557
0.103446
0.102174
25.0896
-0.26772
-0.120154
25.079
-0.258409
-0.120818
25.0724
-0.251691
-0.121396
25.0679
-0.246315
-0.121912
25.0647
-0.242296
-0.122204
25.0629
-0.239524
-0.122346
25.0613
-0.236509
-0.122342
25.0604
-0.234621
-0.122219
25.0595
-0.232549
-0.12201
25.059
-0.231242
-0.121743
25.0588
-0.229935
-0.121462
25.0582
-0.22857
-0.121204
25.0581
-0.227882
-0.120918
25.0575
-0.22686
-0.120784
25.0571
-0.226222
-0.12074
25.0575
-0.225878
-0.120849
25.0584
-0.225539
-0.121154
25.0594
-0.224361
-0.121696
-0.223506
-0.122473
25.0064
-0.0155656
0.00011036
25.0093
-0.00515401
0.000203212
25.0168
0.00746306
0.000174576
25.0361
0.0122857
1.24113e-05
25.0613
0.0218954
-0.000486444
25.0904
0.0385602
-0.00150598
25.138
0.0398307
-0.00326492
25.199
0.0530363
-0.00616197
25.2779
0.0637146
-0.0108468
25.3737
0.0681933
-0.0178953
25.481
0.0553264
-0.0278418
25.5625
0.0185465
-0.0410259
25.5416
-0.07394
-0.0563144
25.5289
-0.147531
-0.071716
25.4074
-0.0363607
-0.0850127
25.3254
-0.170501
-0.0954721
25.2752
-0.165954
-0.102767
25.2132
-0.160074
-0.108048
25.1675
-0.152654
-0.111681
25.1346
-0.144669
-0.114232
25.1105
-0.137395
-0.116032
25.0918
-0.13184
-0.117192
25.0786
-0.127175
-0.118044
25.0693
-0.123756
-0.118595
25.0629
-0.121001
-0.118938
25.0587
-0.119049
-0.118966
25.0553
-0.117258
-0.118844
25.0533
-0.115998
-0.11859
25.0521
-0.115193
-0.118167
25.0513
-0.114054
-0.117689
25.0508
-0.113565
-0.117172
25.0502
-0.112711
-0.116665
25.0503
-0.112458
-0.116163
25.05
-0.11186
-0.115749
25.0503
-0.111739
-0.11546
25.0506
-0.111225
-0.115291
25.0513
-0.111253
-0.115273
25.0522
-0.11106
-0.115446
25.0544
-0.110679
-0.115855
-0.111248
-0.116553
24.9867
8.43213e-05
24.9814
0.000169423
24.9889
7.40666e-05
25.0014
-0.000106044
25.0241
-0.000735738
25.0646
-0.00186167
25.1084
-0.00377816
25.1684
-0.00689451
25.2439
-0.0117665
25.3309
-0.0187578
25.4144
-0.0282371
25.473
-0.0403224
25.4528
-0.0539923
25.3728
-0.0677794
25.4163
-0.0800799
25.3362
-0.0904091
25.2682
-0.0978836
25.2114
-0.103198
25.1658
-0.106997
25.1309
-0.109724
25.1053
-0.111683
25.0865
-0.113002
25.0732
-0.113866
25.0638
-0.114338
25.0574
-0.114618
25.053
-0.114632
25.0502
-0.114485
25.0485
-0.114269
25.0472
-0.113847
25.0465
-0.113414
25.046
-0.112991
25.0458
-0.112545
25.0455
-0.112131
25.0454
-0.111824
25.0454
-0.111689
25.0458
-0.111663
25.0463
-0.111775
25.0473
-0.112063
25.0492
-0.112571
-0.113357
24.9959
0.00115394
0.00242063
24.9895
0.00393247
0.00498752
24.9789
0.00653122
0.00800719
24.9632
0.00969945
0.0117864
24.9423
0.0125941
0.0166787
24.9134
0.017415
0.0231319
24.8721
0.0258478
0.0315687
24.8153
0.0360749
0.0424224
24.7601
0.0280513
0.0560063
24.724
0.000937702
0.0726114
24.6989
-0.0189814
0.0914536
24.636
0.00882253
0.111842
24.6639
-0.092121
0.132303
24.7812
-0.191257
0.151488
24.8135
-0.11476
0.167834
24.8371
-0.112975
0.180952
24.8596
-0.117173
0.19133
24.878
-0.117175
0.19971
24.894
-0.117939
0.206438
24.9206
-0.13098
0.211781
24.9475
-0.132992
0.215842
24.9684
-0.128425
0.219007
24.985
-0.125086
0.221477
24.999
-0.123156
0.2234
25.0107
-0.121458
0.224889
25.021
-0.120447
0.226021
25.0298
-0.119326
0.226859
25.0374
-0.118361
0.227454
25.0442
-0.117771
0.22789
25.0503
-0.117289
0.228228
25.0555
-0.116646
0.228489
25.0598
-0.116089
0.228713
25.0639
-0.116129
0.228906
25.0679
-0.116248
0.229166
25.0713
-0.115958
0.229398
25.0746
-0.116325
0.229694
25.0779
-0.116535
0.229867
25.0814
-0.116924
0.230056
25.0855
-0.117665
0.230029
-0.118342
0.229228
24.996
0.00240752
0.00236052
24.9895
0.00793595
0.00487496
24.9783
0.0137148
0.00784681
24.9626
0.0195386
0.0115879
24.9411
0.0258308
0.016452
24.914
0.0331555
0.0229102
24.8814
0.0429072
0.0314212
24.8394
0.0572483
0.0425346
24.777
0.0626233
0.0567591
24.7016
0.0399609
0.0744732
24.6585
-0.022385
0.0952694
24.5962
0.0130553
0.118157
24.6312
-0.196346
0.141153
24.7634
-0.403523
0.16236
24.8443
-0.284735
0.179726
24.912
-0.276944
0.193343
24.9618
-0.268781
0.204091
25.0015
-0.262882
0.212595
25.0462
-0.271858
0.219328
25.0781
-0.274347
0.224427
25.0967
-0.264736
0.228192
25.1099
-0.255878
0.23104
25.1187
-0.248862
0.233271
25.1253
-0.245278
0.235014
25.1306
-0.242778
0.236402
25.1343
-0.240518
0.237523
25.137
-0.238705
0.238466
25.1395
-0.238076
0.239276
25.1414
-0.237268
0.239991
25.1427
-0.236677
0.240627
25.144
-0.236508
0.241197
25.1453
-0.236482
0.241713
25.146
-0.236345
0.242233
25.1465
-0.236834
0.242708
25.1474
-0.237484
0.243161
25.1478
-0.237818
0.243568
25.1487
-0.238872
0.243891
25.1501
-0.240154
0.244091
25.1516
-0.24113
0.244102
-0.242672
0.243276
24.996
0.0037651
0.00224721
24.9896
0.0119427
0.00465674
24.9785
0.0209394
0.00752325
24.9622
0.0302325
0.011156
24.9396
0.0404771
0.0159234
24.91
0.0516828
0.0223283
24.8723
0.0652863
0.0309325
24.8262
0.0824602
0.0424507
24.7609
0.0995154
0.0577118
24.6661
0.0964308
0.0774501
24.5881
0.00565612
0.101836
-0.00391111
0.00579965
-0.00229628
24.7214
-0.0368773
0.129311
-0.0569283
-0.0353873
-0.0545888
24.5796
0.0233825
0.156515
-0.0927273
0.0262322
-0.0889514
24.7428
-0.212026
0.181113
-0.120986
-0.208083
-0.116229
24.8339
-0.125509
0.199153
-0.117657
-0.120901
-0.112329
24.8931
-0.114428
0.212568
-0.112799
-0.109667
-0.107363
24.9458
-0.111585
0.223176
-0.111203
-0.10651
-0.105903
25.0105
-0.114234
0.23156
-0.113484
-0.109213
-0.10839
25.0528
-0.111367
0.23797
-0.11041
-0.106679
-0.106358
25.0792
-0.108444
0.242418
-0.107085
-0.104658
-0.103034
25.0979
-0.40683
0.24504
25.1104
-0.392277
0.246852
25.1182
-0.380586
0.248261
25.1236
-0.375
0.250069
25.1274
-0.371057
0.25139
25.1298
-0.367858
0.252728
25.1316
-0.365422
0.253438
25.1323
-0.364158
0.254344
25.1327
-0.363543
0.255218
25.1336
-0.364164
0.256075
25.1335
-0.363874
0.256912
25.1336
-0.36487
0.257732
25.1341
-0.365984
0.258284
25.1339
-0.366901
0.259298
25.1334
-0.368345
0.259991
25.1333
-0.369887
0.260589
25.1331
-0.371767
0.261026
25.133
-0.373809
0.261233
25.1337
-0.376015
0.261167
-0.378072
0.260223
24.9968
0.00486141
0.00207651
24.9906
0.0159246
0.00431722
24.9797
0.0282593
0.0069955
24.9636
0.0411825
0.0104115
24.9407
0.0558681
0.0149402
24.9079
0.0740491
0.0211012
24.8634
0.0951862
0.0295873
24.8057
0.119825
0.0412753
24.7377
0.138885
0.0574231
6.14323
0.0376827
0.0796208
0.0530602
0.0376524
0.053058
6.16289
6.14383
6.16269
-0.0115755
6.12588
0.0170459
0.0175503
-0.0153775
-6.11389
6.10192
-0.0327323
0.023277
-0.0191826
-6.10589
6.09852
0.020988
0.0290729
-0.0227578
-6.11399
6.14613
-0.255826
0.0345285
-0.0252162
-6.1644
6.17839
-0.152562
0.0383305
-0.0268094
-6.19169
6.20251
-0.139313
0.0408588
-0.0280893
-6.21352
6.22787
-0.140814
0.0429275
-0.0291967
-6.24071
6.24805
-0.137067
0.0446631
-0.0301044
-6.254
6.25941
-0.132657
0.0459722
-0.0307739
-6.26332
6.26748
-0.128717
0.0468867
25.1112
-0.140562
0.264703
-0.140412
-0.141681
-0.13975
-6.27141
-6.27573
-6.27079
-6.27507
25.1171
-0.533554
0.264138
25.1186
-0.515815
0.263647
25.119
-0.509554
0.265209
25.1177
-0.504291
0.266884
25.1146
-0.500464
0.269039
25.1117
-0.498829
0.270755
25.1083
-0.498197
0.272709
25.1045
-0.49843
0.274581
25.1
-0.49977
0.276323
25.0957
-0.501011
0.277904
25.0908
-0.502975
0.27931
25.0853
-0.504718
0.280259
25.0795
-0.506985
0.281535
25.0732
-0.509244
0.282248
25.0668
-0.511839
0.282796
25.0596
-0.514017
0.282899
25.0526
-0.516855
0.282561
25.0467
-0.520448
0.281647
-0.523029
0.279522
24.9984
0.00444038
0.0018453
24.9933
0.0190865
0.00384643
24.9838
0.0346073
0.00623791
24.9691
0.0512096
0.00929155
24.947
0.071347
0.0133578
24.9149
0.0970631
0.018679
24.8663
0.130644
0.0267299
24.7936
0.173817
0.0377061
6.17358
0.224498
0.0534611
6.16642
6.17437
6.16681
-0.00794166
6.15833
0.048779
0.0120833
-0.011341
6.13242
0.0172696
-6.16105
0.0198301
0.0113004
0.0199653
0.0110987
-0.0395182
-0.015553
-6.0797
6.0464
0.0238284
-0.00205594
0.00332348
-0.00229604
0.00347
0.0227037
-0.0200024
-6.04499
6.05893
0.0307847
0.0522819
-0.0404176
0.0517367
-0.0399879
-0.0481373
-0.0240411
-6.09971
6.14097
0.0368633
-0.0508342
-0.128826
-0.0513578
-0.128365
0.305462
-0.0256095
-6.17166
6.18285
0.0394317
-0.0494733
-0.0528519
-0.0498175
-0.0524739
0.179678
-0.0262701
-6.1962
6.21024
0.0410537
-0.0501836
-0.0496454
-0.0504412
-0.0493976
0.170787
-0.0270087
-6.22395
6.23592
0.0426277
-0.0485212
-0.0485402
-0.0486464
-0.0483982
0.166438
-0.0278706
-6.24574
6.25327
0.0439992
-0.0458784
-0.0458231
-0.0460349
-0.0458648
0.159923
-0.0287785
-6.26014
6.2649
0.045023
-0.043653
-0.0435504
-0.0434278
-0.0437564
0.15341
-0.0296194
-6.26941
6.27187
0.0455728
-0.0414655
-0.0414024
-0.0410044
-0.0416415
0.147137
-6.27462
-0.0302717
6.27663
-0.157697
0.0454206
25.0727
-0.630027
0.250874
-6.27812
-6.27455
-6.27805
-6.27253
25.0482
-0.611239
0.245321
25.0208
-0.597368
0.241318
24.9923
-0.587472
0.237981
24.9646
-0.582383
0.235931
24.9372
-0.580605
0.235186
24.9107
-0.581083
0.234746
24.8851
-0.583398
0.235118
24.8598
-0.586955
0.235822
24.8353
-0.591411
0.236652
24.8117
-0.596435
0.237219
24.7887
-0.601661
0.238145
24.7663
-0.606771
0.238511
24.7447
-0.612023
0.238543
24.7238
-0.616947
0.238143
24.7042
-0.621736
0.237131
24.6859
-0.626521
0.235323
24.6697
-0.631853
0.232543
-0.638642
0.22826
25.002
0.00091596
0.0015799
24.9997
0.0197825
0.00325766
24.9919
0.0397284
0.00525861
24.9798
0.0594493
0.00778772
24.9623
0.0834106
0.0111212
24.9363
0.11585
0.0151539
24.8941
0.162045
0.0219697
24.8229
0.229726
0.0308617
6.17267
0.335996
0.0439456
6.17166
6.17311
6.1718
-0.00643133
-0.0636712
6.14719
0.0856547
0.0099744
-0.00213168
-0.0190793
-1.52803
1.52279
0.0236437
0.0028162
-0.00316178
-0.0183198
-1.50439
1.49183
0.0300369
0.00403241
-0.00439757
-1.46944
0.0526435
1.47955
-0.0639211
0.00558594
-0.00549019
-1.52954
0.153256
1.5412
-0.166233
0.00681999
-0.0051422
-1.53733
0.0585883
-0.0615755
1.53898
0.00649926
-1.54839
-0.00417815
0.0586009
-0.063484
0.00616005
1.5513
-0.00365087
0.0561215
-1.55737
1.55892
-0.0597636
0.00573927
-0.00359552
0.0517006
-1.56216
1.56283
-0.0541983
0.00543382
-0.00403441
0.0482567
-1.56389
1.56414
-0.0498842
0.00541548
-0.0047957
0.0449033
-1.56415
1.564
-0.0456136
0.0056651
-1.55911
-0.021399
0.165682
6.18222
-0.150152
0.0274784
-1.5449
-1.5582
-1.54161
23.8631
-0.73085
0.117675
-6.12031
-5.79937
-6.10185
-5.79219
23.8909
-0.691389
0.11807
23.9119
-0.670411
0.116842
23.9282
-0.655426
0.114603
23.94
-0.645905
0.112467
23.9481
-0.640775
0.110689
23.9542
-0.63914
0.10845
23.9588
-0.640196
0.106427
23.963
-0.643253
0.104399
23.9673
-0.647615
0.102376
23.9723
-0.652718
0.10014
23.9779
-0.658203
0.0984028
23.9847
-0.663652
0.0964192
23.9925
-0.668861
0.0944086
24.0015
-0.673672
0.0922504
24.0113
-0.677988
0.0897878
24.022
-0.68176
0.0867427
24.0331
-0.684996
0.082629
-0.687802
0.0764681
25.0089
-0.000335785
0.00126212
25.0094
0.0179358
0.0025766
25.0059
0.0412676
0.00410963
24.9989
0.0634717
0.00598092
24.9888
0.0894895
0.00834779
24.975
0.12457
0.010928
24.9552
0.174182
0.015483
24.9244
0.25021
0.0208164
6.21333
0.376182
0.0282064
6.22134
6.21346
6.22159
-0.00400011
-0.103671
6.1977
0.117098
0.00621911
-0.00129331
-0.0388742
-1.54181
1.53562
0.0446574
0.00170687
-0.002016
-0.081506
-1.50526
1.48653
0.0996239
0.00263599
-0.000248619
0.00468195
-0.0748689
0.0751585
-0.00499482
0.00027143
0.00379512
-0.224944
0.0162568
-0.0295764
0.000614896
0.233853
-1.20216
-0.000385857
0.0678747
-0.0836017
-0.000432654
1.2187
0.000958408
0.0576999
-1.25169
1.25724
-0.0625531
-0.0016572
0.00297357
0.054951
-1.27539
1.28201
-0.0616816
-0.00285891
0.00467372
0.0490416
-1.29875
1.30414
-0.0553411
-0.00375778
0.00613381
0.0440683
-1.31803
1.32388
-0.0512721
-0.00477586
-1.36671
0.0280307
0.181672
5.74823
-0.21164
-0.0223134
-1.48562
-1.38154
-1.49012
24.0053
-0.671425
-0.168486
-5.80915
-6.15767
-5.87029
-6.1615
24.0141
-0.636627
-0.166051
24.0287
-0.621817
-0.165161
24.0492
-0.611376
-0.166048
24.074
-0.603741
-0.168033
24.1024
-0.598907
-0.170479
24.1337
-0.596466
-0.172922
24.167
-0.595682
-0.175014
24.2012
-0.596091
-0.176523
24.2354
-0.597251
-0.177321
24.2688
-0.599032
-0.177406
24.3012
-0.60132
-0.17681
24.3323
-0.603825
-0.17572
24.3617
-0.606097
-0.174233
24.3891
-0.608183
-0.172566
24.4146
-0.609967
-0.170958
24.4382
-0.611316
-0.169784
24.4595
-0.611638
-0.16943
-0.60954
-0.170256
25.008
-0.0051547
0.000893743
25.0148
0.0102204
0.00186299
25.0212
0.0334969
0.00290306
25.0248
0.0579993
0.00406246
25.0238
0.0879918
0.00536703
25.0277
0.117629
0.00655808
25.0391
0.158763
0.00829699
25.0666
0.217944
0.00955128
6.27517
0.307965
0.0101414
6.28726
6.27656
6.29046
-0.00121027
-0.108737
6.28245
0.100804
0.00183956
-0.000265094
-0.0441186
-1.57754
1.57921
0.0423788
0.000330861
-0.00011167
-0.082044
-1.59949
1.61585
0.0655632
0.00021462
0.000640408
-0.0273188
-1.7113
1.74971
0.0614016
0.0011616
-0.0228626
-0.0282818
-0.0231638
0.00315708
0.107269
-1.71062
1.67999
-0.0768164
-0.00300154
0.104752
-1.61039
0.00393085
1.59916
-0.0923861
-0.00509217
0.0045455
0.0744488
-1.58362
-0.00614501
1.58131
-0.0705655
0.00488385
0.0542134
-1.57776
1.57621
-0.0509824
-0.00656738
0.00510776
0.0561343
-1.5752
1.57371
-0.0529668
-0.00678521
0.00533611
0.0503848
-1.5727
1.572
-0.0480696
-0.00694815
0.00554472
0.0465672
-1.56906
1.56933
-0.0453384
-0.00704474
-1.56932
0.0244253
0.176843
6.27171
-0.156872
-0.0376452
-1.56954
-1.56941
-1.57021
25.0779
-0.530344
-0.235896
-6.27448
-6.26839
-6.2797
-6.27373
25.0789
-0.518163
-0.234748
25.0776
-0.503544
-0.233659
25.0764
-0.494262
-0.233819
25.0754
-0.486905
-0.23481
25.075
-0.482062
-0.236291
25.0744
-0.478428
-0.238079
25.0736
-0.475945
-0.24001
25.0727
-0.47433
-0.241927
25.0713
-0.473136
-0.243716
25.0696
-0.472663
-0.245318
25.0682
-0.472865
-0.246939
25.0663
-0.47329
-0.247893
25.0641
-0.473312
-0.248939
25.0625
-0.474165
-0.249927
25.0611
-0.474459
-0.251061
25.0603
-0.474419
-0.25254
25.06
-0.473364
-0.254561
-0.471663
-0.257077
25.0066
-0.00939857
0.000598896
25.0163
-0.000101454
0.0012067
25.0301
0.0189655
0.00176751
25.0381
0.0490552
0.00225236
25.0552
0.0697663
0.00255524
25.0781
0.0936763
0.00248707
25.1154
0.120871
0.0016974
25.18
0.153666
-0.000465737
6.32882
0.195012
-0.00520592
6.3177
6.33297
6.31614
-0.0856207
0.00112733
6.34694
0.0681722
-0.00179515
-0.0329491
0.00291931
6.42019
0.0878871
-0.00431915
-0.0310715
-0.0331241
-0.0301709
-6.37931
-0.0299276
0.00627787
6.49156
0.0831978
-0.00922718
-0.0293915
-0.0289692
-0.0316428
-6.45194
-0.0103566
0.0111665
-6.54015
6.4995
-0.0553065
-0.0170513
0.0619977
-0.0114943
0.061536
0.0341556
0.0179084
-6.49251
6.47425
-0.141388
-0.0268164
0.0507043
0.0335073
0.0500111
0.0574568
-6.45091
0.0231176
6.40742
-0.180397
-0.0346296
0.056705
0.0609492
0.0601718
0.0553167
0.0261067
-6.36757
6.34009
-0.174772
-0.039351
0.0533407
0.0543873
0.0524558
0.0451587
0.0279175
-6.32661
6.31977
-0.156926
-0.0422382
0.0445705
0.0444287
0.0439892
0.0441337
0.0290268
-6.31547
6.30735
-0.153487
-0.0439666
0.0447279
0.0435461
0.0441727
0.0435691
0.0295746
-6.29826
6.2889
-0.143923
-0.0448532
0.041144
0.0431214
0.0407221
0.0387084
0.0298212
-6.28105
6.2729
-0.127428
-0.0451918
0.0357695
0.0393372
0.0371074
0.138287
-6.27112
0.0300597
6.27122
-0.123256
-0.0452106
25.068
-0.391203
-0.253643
-6.26951
-6.268
-6.2701
-6.26785
25.0611
-0.381827
-0.252153
25.058
-0.372423
-0.251141
25.056
-0.364903
-0.251043
25.0556
-0.359238
-0.251226
25.0554
-0.354525
-0.251461
25.0558
-0.351249
-0.251663
25.0566
-0.34877
-0.251775
25.0571
-0.34647
-0.251768
25.058
-0.345235
-0.25164
25.0585
-0.343973
-0.251388
25.0591
-0.343579