/*--------------------------------*- C++ -*----------------------------------*\
| =========                 |                                                 |
| \\      /  F ield         | OpenFOAM: The Open Source CFD Toolbox           |
|  \\    /   O peration     | Version:  2306                                  |
|   \\  /    A nd           | Website:  www.openfoam.com                      |
|    \\/     M anipulation  |                                                 |
\*---------------------------------------------------------------------------*/
FoamFile
{
    version     2.0;
    format      ascii;
    arch        "LSB;label=32;scalar=64";
    class       volVectorField;
    location    "0.9";
    object      U;
}
// * * * * * * * * * * * * * * * * * * * * * * * * * * * * * * * * * * * * * //

dimensions      [0 1 -1 0 0 0 0];

internalField   nonuniform List<vector> 
111542
(
(99.9934 0.00558132 0.00246258)
(99.9714 0.0114416 0.00516563)
(99.9303 0.0175157 0.00821998)
(99.869 0.0239169 0.0120837)
(99.7858 0.0303574 0.0171455)
(99.6788 0.0360343 0.0238661)
(99.547 0.0390655 0.0325317)
(99.3926 0.0364739 0.0436629)
(99.2251 0.0236363 0.0577864)
(99.0643 -0.00582149 0.0749229)
(98.9431 -0.0576042 0.0945452)
(98.9023 -0.129331 0.115583)
(98.9684 -0.202859 0.136827)
(99.133 -0.258616 0.156322)
(99.3519 -0.286052 0.172851)
(99.5766 -0.294781 0.186536)
(99.7794 -0.293668 0.197719)
(99.9511 -0.287346 0.20701)
(100.091 -0.27881 0.214671)
(100.202 -0.270136 0.220969)
(100.287 -0.262652 0.225871)
(100.35 -0.256645 0.229758)
(100.396 -0.251899 0.233142)
(100.431 -0.248699 0.235969)
(100.456 -0.246766 0.238341)
(100.476 -0.24559 0.240469)
(100.493 -0.245227 0.242116)
(100.506 -0.245467 0.243291)
(100.517 -0.245929 0.244138)
(100.526 -0.246434 0.244656)
(100.535 -0.246916 0.244823)
(100.543 -0.247414 0.244607)
(100.549 -0.247796 0.244209)
(100.556 -0.248089 0.243706)
(100.561 -0.248377 0.243131)
(100.567 -0.248766 0.242501)
(100.573 -0.249391 0.241774)
(100.58 -0.250175 0.241104)
(100.588 -0.251179 0.24053)
(100.601 -0.252627 0.240134)
(99.9937 0.0166277 0.00241789)
(99.972 0.0340136 0.00501568)
(99.9315 0.0524183 0.00807086)
(99.8706 0.0721035 0.0119324)
(99.7868 0.0923836 0.0169796)
(99.6765 0.111099 0.0236639)
(99.5367 0.123269 0.0324614)
(99.3668 0.120052 0.0439307)
(99.1728 0.0868589 0.0586003)
(98.9735 0.00277087 0.0766851)
(98.8101 -0.149402 0.0978791)
(98.7488 -0.363242 0.120367)
(98.834 -0.586155 0.143199)
(99.0447 -0.746324 0.164067)
(99.3088 -0.82568 0.181339)
(99.5619 -0.854267 0.195151)
(99.7795 -0.853959 0.206368)
(99.9586 -0.837827 0.215633)
(100.101 -0.815059 0.223188)
(100.211 -0.790929 0.229176)
(100.292 -0.768694 0.233844)
(100.352 -0.751003 0.237799)
(100.395 -0.738267 0.241484)
(100.425 -0.729934 0.244926)
(100.448 -0.723782 0.248046)
(100.465 -0.718432 0.2508)
(100.48 -0.714099 0.253087)
(100.491 -0.710751 0.254849)
(100.501 -0.707952 0.25607)
(100.51 -0.705457 0.256743)
(100.519 -0.703209 0.256889)
(100.526 -0.701275 0.256568)
(100.533 -0.69955 0.255899)
(100.539 -0.698129 0.254987)
(100.545 -0.697202 0.253917)
(100.55 -0.696987 0.252755)
(100.556 -0.697706 0.251546)
(100.562 -0.699298 0.250354)
(100.57 -0.701799 0.249236)
(100.581 -0.705257 0.248348)
(99.994 0.0272528 0.00230755)
(99.9734 0.0558123 0.00479493)
(99.9345 0.0867666 0.00775826)
(99.875 0.12079 0.0115212)
(99.791 0.15746 0.0164697)
(99.6763 0.194316 0.0230942)
(99.5232 0.224937 0.0319825)
(99.3243 0.235616 0.0438314)
(99.0769 0.199732 0.0594076)
(98.798 0.0690357 0.0793587)
(98.547 -0.264741 0.103928)
(98.4363 -0.725848 0.131441)
(98.5613 -1.14105 0.156447)
(98.8677 -1.37574 0.178666)
(99.2132 -1.46952 0.195948)
(99.5145 -1.49626 0.209064)
(99.7596 -1.48002 0.219614)
(99.9527 -1.443 0.228382)
(100.1 -1.39957 0.235471)
(100.209 -1.35606 0.240894)
(100.287 -1.31751 0.244949)
(100.34 -1.28385 0.248947)
(100.375 -1.26502 0.253614)
(100.4 -1.25896 0.258775)
(100.421 -1.25777 0.263947)
(100.436 -1.25756 0.268701)
(100.448 -1.25758 0.272699)
(100.457 -1.2575 0.27569)
(100.464 -1.25687 0.277522)
(100.471 -1.25546 0.278154)
(100.477 -1.25328 0.27764)
(100.482 -1.25052 0.276116)
(100.486 -1.24741 0.273771)
(100.49 -1.24429 0.270826)
(100.492 -1.24155 0.267492)
(100.494 -1.23959 0.263958)
(100.496 -1.23878 0.260373)
(100.498 -1.2393 0.256863)
(100.501 -1.24115 0.253576)
(100.507 -1.24397 0.250842)
(99.9946 0.0369615 0.00213628)
(99.9761 0.0760219 0.00445336)
(99.9407 0.119296 0.00722955)
(99.8853 0.16858 0.0107745)
(99.8045 0.224848 0.0154726)
(99.6887 0.287393 0.0218351)
(99.5235 0.351817 0.0305319)
(99.2883 0.405419 0.0424167)
(98.9542 0.418399 0.0585916)
(98.4574 0.216749 0.0805085)
(98.2017 0.036945 0.087328)
(97.858 -0.618545 0.103005)
(97.9277 -1.41577 0.11618)
(98.4087 -1.91979 0.126488)
(98.9082 -2.05986 0.135816)
(99.2989 -2.08708 0.14157)
(99.6157 -2.04998 0.145773)
(99.8563 -1.98056 0.149391)
(100.033 -1.90532 0.152503)
(100.164 -1.83686 0.155023)
(100.326 -1.88928 0.254371)
(100.359 -1.82146 0.261958)
(100.363 -1.77537 0.271095)
(100.363 -1.75013 0.280747)
(100.364 -1.73628 0.289919)
(100.363 -1.72989 0.297797)
(100.359 -1.72857 0.303771)
(100.352 -1.72994 0.307488)
(100.344 -1.73216 0.308853)
(100.335 -1.73411 0.307967)
(100.324 -1.73519 0.30508)
(100.313 -1.73521 0.300542)
(100.3 -1.73424 0.294751)
(100.285 -1.73261 0.288109)
(100.269 -1.73079 0.280985)
(100.252 -1.72936 0.273677)
(100.233 -1.7289 0.266404)
(100.214 -1.72992 0.259323)
(100.196 -1.73259 0.252618)
(100.173 -1.73599 0.246817)
(99.9956 0.0450169 0.00190073)
(99.9806 0.0930397 0.00397478)
(99.9515 0.147445 0.00646058)
(99.9048 0.211725 0.00963204)
(99.8342 0.289412 0.0138421)
(99.7281 0.383967 0.0195711)
(99.567 0.497951 0.0274863)
(99.3183 0.62978 0.0384773)
(98.8768 0.765717 0.0537606)
(98.5337 0.771394 0.0592607)
(97.7235 0.378193 0.0732553)
(96.9271 -0.691123 0.0906882)
(97.0365 -2.33455 0.103341)
(98.171 -2.9105 0.111455)
(98.8849 -2.91386 0.121545)
(99.3413 -2.86221 0.124851)
(99.6995 -2.74244 0.127258)
(99.9416 -2.61015 0.13114)
(100.104 -2.49044 0.136265)
(100.209 -2.39237 0.14237)
(100.276 -2.34243 0.153806)
(100.209 -2.44799 0.30027)
(100.077 -2.44155 0.321345)
(99.948 -2.42295 0.340513)
(99.8307 -2.40172 0.35568)
(99.7191 -2.38534 0.365684)
(99.6128 -2.37363 0.369925)
(99.5131 -2.36421 0.368402)
(99.4207 -2.35533 0.361629)
(99.3354 -2.346 0.350459)
(99.2568 -2.33568 0.335924)
(99.1841 -2.32419 0.319106)
(99.1166 -2.31162 0.301027)
(99.0532 -2.29835 0.282577)
(98.993 -2.28498 0.264471)
(98.9352 -2.27218 0.247212)
(98.8795 -2.26078 0.231084)
(98.8259 -2.25171 0.216212)
(98.776 -2.24627 0.202657)
(98.7242 -2.2468 0.190882)
(99.9971 0.0504993 0.00160412)
(99.9871 0.104835 0.00336745)
(99.9674 0.167627 0.00545967)
(99.9351 0.244189 0.00808941)
(99.8847 0.341099 0.0115302)
(99.8056 0.467401 0.0161536)
(99.6787 0.636466 0.0224782)
(99.467 0.868257 0.0311986)
(99.046 1.1937 0.043243)
(98.6363 1.35311 0.0480894)
(97.6807 1.48809 0.0468384)
(95.5775 0.701084 0.0433887)
(94.4198 -3.4475 0.0553488)
(98.2615 -4.68532 0.0475495)
(98.7638 -3.84475 0.0774895)
(99.3072 -3.74974 0.0841032)
(99.678 -3.52665 0.0973859)
(99.8139 -3.31369 0.110068)
(99.8127 -3.16167 0.119233)
(99.72 -3.03271 0.125963)
(98.5903 -2.76104 0.300184)
(95.2874 -2.25414 0.272019)
(95.3153 -2.34067 0.274028)
(95.3669 -2.39486 0.266532)
(95.4091 -2.43392 0.252227)
(95.4447 -2.46845 0.233463)
(95.4806 -2.49956 0.212241)
(95.5193 -2.52585 0.190201)
(95.5605 -2.54625 0.168684)
(95.6037 -2.56032 0.148728)
(95.6485 -2.56797 0.131026)
(95.6944 -2.56951 0.115935)
(95.741 -2.56561 0.10349)
(95.7876 -2.55724 0.0934804)
(95.834 -2.54557 0.0855051)
(95.8797 -2.5319 0.0790247)
(95.9246 -2.51754 0.0734172)
(95.9685 -2.50394 0.0680163)
(96.0108 -2.49285 0.0621677)
(96.0576 -2.48715 0.0554516)
(99.9989 0.0525415 0.00125684)
(99.9952 0.109388 0.00266025)
(99.9877 0.176022 0.00427813)
(99.975 0.259024 0.00622986)
(99.9543 0.367159 0.00866487)
(99.9208 0.513755 0.0117666)
(99.866 0.720612 0.0157427)
(99.775 1.02605 0.0207781)
(99.5983 1.50318 0.0269715)
(99.3269 1.90139 0.0297402)
(98.5966 2.83134 0.0277901)
(95.4271 5.79841 0.0190015)
(77.1678 -4.35821 0.0121374)
(102.83 -10.2956 0.019876)
(55.7674 -4.14116 -0.57418)
(77.8523 -5.19218 -0.364798)
(82.0887 -4.60335 -0.428473)
(85.164 -4.36043 -0.436427)
(87.3897 -4.15016 -0.402913)
(89.0336 -3.96172 -0.320708)
(92.8151 -3.72737 -0.266553)
(95.9451 -3.20044 -0.333112)
(96.1423 -3.09022 -0.353697)
(96.3508 -3.01444 -0.364442)
(96.5289 -2.96039 -0.367203)
(96.681 -2.91869 -0.362642)
(96.8155 -2.88506 -0.351605)
(96.9347 -2.8569 -0.335407)
(97.0385 -2.83216 -0.315547)
(97.1274 -2.80931 -0.293473)
(97.2027 -2.7874 -0.27047)
(97.2664 -2.76595 -0.247622)
(97.3207 -2.7448 -0.225797)
(97.368 -2.72402 -0.205652)
(97.4107 -2.70377 -0.187659)
(97.4509 -2.68425 -0.172147)
(97.4903 -2.6656 -0.159371)
(97.5306 -2.64776 -0.149555)
(97.5725 -2.63021 -0.143017)
(97.6288 -2.6111 -0.140587)
(100.001 0.0505591 0.00103442)
(100.004 0.105372 0.00202043)
(100.01 0.170065 0.0031017)
(100.019 0.251375 0.00430628)
(100.032 0.358305 0.00563332)
(100.052 0.50432 0.00704388)
(100.085 0.710716 0.00839688)
(100.145 1.01323 0.00931835)
(100.286 1.47414 0.00901568)
(100.33 1.88489 0.009068)
(100.592 2.87079 0.00556161)
(102.379 5.41267 -0.00430747)
(111.123 3.94713 -0.0731174)
(109.029 -6.62194 0.00644507)
(102.814 -6.67841 -0.0497553)
(101.156 -4.88334 -0.0614903)
(100.716 -3.89031 -0.0603777)
(100.543 -3.35552 -0.0567655)
(100.449 -3.05112 -0.0550697)
(100.372 -2.87831 -0.0560053)
(100.266 -2.66221 -0.139661)
(100.281 -2.26297 -0.249151)
(100.262 -2.16834 -0.264235)
(100.25 -2.11601 -0.278182)
(100.244 -2.08881 -0.290488)
(100.238 -2.0721 -0.300347)
(100.233 -2.06015 -0.307039)
(100.229 -2.05095 -0.310333)
(100.226 -2.04335 -0.310384)
(100.224 -2.03659 -0.307554)
(100.222 -2.03039 -0.302329)
(100.22 -2.02478 -0.295268)
(100.218 -2.01994 -0.286952)
(100.215 -2.01606 -0.277951)
(100.213 -2.01321 -0.268802)
(100.21 -2.0113 -0.260007)
(100.208 -2.01005 -0.252031)
(100.208 -2.00886 -0.2453)
(100.21 -2.00657 -0.240163)
(100.217 -2.00108 -0.236657)
(100.003 0.0443626 0.000639172)
(100.012 0.0925227 0.00126917)
(100.031 0.149383 0.00189954)
(100.06 0.220737 0.00242744)
(100.104 0.313974 0.0027353)
(100.171 0.439148 0.00261601)
(100.273 0.610378 0.00167461)
(100.439 0.847193 -0.000800821)
(100.754 1.17425 -0.00613896)
(100.976 1.41501 -0.00807782)
(101.821 1.87735 -0.0150169)
(103.429 1.79716 -0.0283079)
(105.219 -0.187209 -0.0452206)
(104.783 -2.76187 -0.0263882)
(103.003 -3.48361 -0.0444599)
(101.795 -3.27449 -0.0588507)
(101.168 -2.93191 -0.0672856)
(100.826 -2.64393 -0.0727166)
(100.622 -2.4295 -0.0767434)
(100.484 -2.27076 -0.0802064)
(100.385 -2.14542 -0.0847084)
(100.279 -1.87696 -0.240722)
(100.244 -1.84411 -0.2461)
(100.223 -1.81891 -0.251588)
(100.213 -1.80075 -0.256735)
(100.207 -1.78616 -0.260988)
(100.204 -1.77315 -0.263864)
(100.204 -1.76129 -0.265149)
(100.204 -1.75051 -0.26487)
(100.205 -1.74066 -0.26321)
(100.207 -1.73162 -0.26044)
(100.208 -1.72335 -0.256888)
(100.21 -1.71582 -0.252895)
(100.211 -1.70896 -0.248791)
(100.212 -1.70264 -0.244881)
(100.213 -1.69667 -0.241435)
(100.215 -1.69078 -0.238687)
(100.218 -1.6846 -0.236839)
(100.224 -1.67776 -0.236057)
(100.239 -1.67031 -0.236479)
(100.004 0.0344875 0.000405154)
(100.019 0.0719311 0.000800951)
(100.048 0.115985 0.00102577)
(100.093 0.170853 0.000973061)
(100.16 0.241469 0.000453052)
(100.259 0.333574 -0.000865427)
(100.404 0.453386 -0.00351708)
(100.622 0.605391 -0.0083589)
(100.956 0.785978 -0.0167961)
(101.441 0.872106 -0.0306523)
(102.081 0.77889 -0.0516634)
(102.759 0.257327 -0.0803731)
(103.123 -0.725396 -0.112236)
(102.885 -1.55394 -0.141043)
(102.251 -1.8632 -0.169727)
(101.624 -1.87412 -0.19237)
(101.175 -1.79454 -0.207784)
(100.88 -1.69597 -0.218227)
(100.681 -1.60231 -0.225553)
(100.539 -1.51925 -0.230709)
(100.44 -1.44659 -0.234392)
(100.374 -1.38114 -0.237301)
(100.329 -1.32819 -0.240223)
(100.298 -1.28459 -0.243222)
(100.277 -1.24978 -0.246066)
(100.263 -1.22218 -0.248538)
(100.253 -1.19979 -0.250477)
(100.246 -1.18126 -0.251787)
(100.242 -1.16575 -0.252443)
(100.238 -1.15271 -0.252484)
(100.236 -1.14172 -0.251997)
(100.234 -1.13252 -0.251106)
(100.233 -1.12493 -0.249957)
(100.231 -1.11876 -0.248702)
(100.23 -1.11379 -0.247501)
(100.229 -1.1098 -0.246507)
(100.228 -1.1065 -0.245868)
(100.23 -1.10359 -0.245724)
(100.233 -1.10081 -0.246205)
(100.24 -1.0982 -0.247428)
(100.005 0.0218729 0.000225269)
(100.024 0.045507 0.000384049)
(100.059 0.073294 0.000335701)
(100.115 0.107484 -8.57682e-05)
(100.197 0.150905 -0.00116215)
(100.313 0.2059 -0.00325797)
(100.477 0.27389 -0.00695104)
(100.705 0.352397 -0.013053)
(101.014 0.428648 -0.0226889)
(101.414 0.463809 -0.0371324)
(101.88 0.402275 -0.0574351)
(102.314 0.169151 -0.0837939)
(102.542 -0.246716 -0.1137)
(102.433 -0.673888 -0.142617)
(102.051 -0.919603 -0.168726)
(101.594 -0.98323 -0.189552)
(101.213 -0.959464 -0.204997)
(100.935 -0.910269 -0.216095)
(100.734 -0.858792 -0.224185)
(100.585 -0.811488 -0.230071)
(100.474 -0.770768 -0.234295)
(100.393 -0.73929 -0.237345)
(100.334 -0.717154 -0.239746)
(100.291 -0.702016 -0.24166)
(100.261 -0.691899 -0.243099)
(100.24 -0.685413 -0.244063)
(100.226 -0.68132 -0.244564)
(100.216 -0.678731 -0.244611)
(100.21 -0.677153 -0.244234)
(100.206 -0.67632 -0.243492)
(100.203 -0.67605 -0.242472)
(100.202 -0.67623 -0.241278)
(100.201 -0.676769 -0.240023)
(100.2 -0.677623 -0.23882)
(100.2 -0.678433 -0.237811)
(100.201 -0.679226 -0.237075)
(100.203 -0.679894 -0.236695)
(100.206 -0.680286 -0.236766)
(100.213 -0.680292 -0.237404)
(100.227 -0.679753 -0.238833)
(100.006 0.00749519 0.000123265)
(100.026 0.0155489 0.000216959)
(100.065 0.0250447 -2.28379e-06)
(100.126 0.0365902 -0.000553517)
(100.214 0.0512022 -0.00192063)
(100.338 0.0694103 -0.00440145)
(100.508 0.0912022 -0.00861249)
(100.735 0.115109 -0.015255)
(101.026 0.136082 -0.0254362)
(101.377 0.141636 -0.039884)
(101.752 0.112012 -0.0592037)
(102.078 0.0266293 -0.0831752)
(102.249 -0.111858 -0.110112)
(102.188 -0.25622 -0.137144)
(101.919 -0.349157 -0.161161)
(101.559 -0.379533 -0.181048)
(101.222 -0.375705 -0.196583)
(100.954 -0.36184 -0.208098)
(100.753 -0.346963 -0.216671)
(100.6 -0.333263 -0.223022)
(100.484 -0.321361 -0.227666)
(100.398 -0.311638 -0.23099)
(100.336 -0.303569 -0.233339)
(100.291 -0.29644 -0.234884)
(100.26 -0.289641 -0.23589)
(100.238 -0.282986 -0.236451)
(100.224 -0.276398 -0.236616)
(100.213 -0.269857 -0.236437)
(100.207 -0.263412 -0.235971)
(100.202 -0.257146 -0.235287)
(100.199 -0.251142 -0.234461)
(100.197 -0.245473 -0.233573)
(100.195 -0.240211 -0.232696)
(100.194 -0.235439 -0.231861)
(100.194 -0.23097 -0.231352)
(100.194 -0.226924 -0.23111)
(100.196 -0.223316 -0.231167)
(100.198 -0.22013 -0.231605)
(100.204 -0.217453 -0.232533)
(100.213 -0.21575 -0.234197)
(99.9936 0.00553721 0.00731977)
(99.9719 0.0112932 0.0152301)
(99.9315 0.0173702 0.0243945)
(99.8714 0.0237729 0.0359247)
(99.7899 0.0302024 0.0509083)
(99.6851 0.0358497 0.0706053)
(99.5562 0.0390167 0.096134)
(99.4055 0.0367612 0.128949)
(99.2421 0.0244597 0.170356)
(99.0851 -0.00409715 0.220571)
(98.9665 -0.0544482 0.278472)
(98.9264 -0.124753 0.341009)
(98.9899 -0.196415 0.40365)
(99.1485 -0.250475 0.461105)
(99.3599 -0.277042 0.50984)
(99.5771 -0.285474 0.549842)
(99.7734 -0.284187 0.582275)
(99.9405 -0.277774 0.608696)
(100.078 -0.269263 0.629979)
(100.187 -0.260883 0.646838)
(100.273 -0.253558 0.659635)
(100.338 -0.247445 0.669325)
(100.388 -0.242385 0.676956)
(100.425 -0.238574 0.682735)
(100.455 -0.235901 0.686949)
(100.478 -0.234119 0.690042)
(100.497 -0.233133 0.691979)
(100.512 -0.232801 0.693046)
(100.525 -0.232904 0.693663)
(100.534 -0.233259 0.694)
(100.542 -0.233752 0.694143)
(100.549 -0.234326 0.694129)
(100.554 -0.234939 0.694224)
(100.558 -0.235592 0.69449)
(100.562 -0.236312 0.694875)
(100.565 -0.237158 0.695282)
(100.569 -0.238181 0.695526)
(100.574 -0.239398 0.695635)
(100.581 -0.240858 0.695464)
(100.593 -0.242707 0.694855)
(99.9938 0.0164745 0.00716728)
(99.9726 0.0336483 0.0148669)
(99.9328 0.051968 0.0239516)
(99.8731 0.0715615 0.0354078)
(99.7911 0.0917421 0.0503292)
(99.6834 0.110389 0.0700246)
(99.5469 0.122811 0.0959423)
(99.3814 0.120331 0.129739)
(99.1924 0.0885729 0.172969)
(98.9981 0.00718258 0.22644)
(98.8383 -0.140551 0.289387)
(98.7787 -0.347992 0.358372)
(98.8623 -0.566162 0.427436)
(99.0668 -0.724489 0.489697)
(99.3228 -0.802813 0.540694)
(99.5681 -0.831593 0.581255)
(99.7796 -0.831549 0.61375)
(99.954 -0.815638 0.639975)
(100.093 -0.79326 0.660749)
(100.202 -0.769899 0.676587)
(100.284 -0.748441 0.688185)
(100.345 -0.730676 0.697069)
(100.391 -0.716776 0.704132)
(100.424 -0.70628 0.709516)
(100.449 -0.697532 0.713401)
(100.469 -0.68976 0.716194)
(100.485 -0.683259 0.718233)
(100.497 -0.678244 0.719801)
(100.507 -0.674547 0.721112)
(100.516 -0.671958 0.722273)
(100.523 -0.670342 0.723346)
(100.529 -0.669607 0.724377)
(100.534 -0.669647 0.725443)
(100.539 -0.67044 0.726551)
(100.543 -0.672008 0.727644)
(100.546 -0.674389 0.728618)
(100.55 -0.67764 0.729335)
(100.555 -0.681737 0.729672)
(100.562 -0.686596 0.729485)
(100.573 -0.692049 0.728692)
(99.9941 0.0269737 0.00683847)
(99.9739 0.0552585 0.014218)
(99.9359 0.0859439 0.0230042)
(99.8777 0.119667 0.0341503)
(99.7958 0.156013 0.0487892)
(99.684 0.192601 0.0683567)
(99.535 0.223195 0.0946138)
(99.3414 0.234381 0.129678)
(99.1006 0.200067 0.175871)
(98.829 0.0729238 0.235171)
(98.5845 -0.253168 0.307903)
(98.4766 -0.704759 0.389159)
(98.5983 -1.1121 0.468603)
(98.8971 -1.34429 0.537444)
(99.2332 -1.4386 0.590161)
(99.5262 -1.4666 0.630053)
(99.7652 -1.45106 0.661559)
(99.9541 -1.41446 0.686789)
(100.099 -1.37157 0.706132)
(100.206 -1.32868 0.719688)
(100.285 -1.29032 0.727627)
(100.34 -1.25498 0.733254)
(100.379 -1.23257 0.738266)
(100.406 -1.22198 0.742426)
(100.428 -1.21612 0.745445)
(100.444 -1.21179 0.747591)
(100.455 -1.20869 0.7493)
(100.463 -1.20678 0.750869)
(100.468 -1.20569 0.752452)
(100.473 -1.20517 0.754121)
(100.476 -1.20507 0.755888)
(100.479 -1.20538 0.757731)
(100.481 -1.20615 0.759602)
(100.482 -1.20748 0.761419)
(100.483 -1.20952 0.76306)
(100.483 -1.2125 0.764356)
(100.484 -1.21658 0.765104)
(100.485 -1.22189 0.765094)
(100.487 -1.22827 0.764189)
(100.493 -1.23501 0.762554)
(99.9947 0.0365587 0.00632806)
(99.9766 0.0752136 0.0131965)
(99.9421 0.118023 0.0214189)
(99.8882 0.166738 0.0319141)
(99.8095 0.222305 0.0458266)
(99.697 0.284035 0.0646792)
(99.5364 0.347619 0.0905107)
(99.3077 0.400574 0.125978)
(98.9821 0.413532 0.174521)
(98.4963 0.2155 0.240393)
(98.2409 0.0328565 0.273415)
(97.9035 -0.62503 0.349011)
(97.9757 -1.41893 0.426113)
(98.4533 -1.92838 0.492781)
(98.9436 -2.07395 0.540441)
(99.3276 -2.10842 0.573305)
(99.6402 -2.07566 0.598619)
(99.878 -2.0073 0.619211)
(100.053 -1.93098 0.635322)
(100.181 -1.86013 0.646718)
(100.335 -1.89011 0.760679)
(100.369 -1.81368 0.760297)
(100.376 -1.75461 0.759408)
(100.377 -1.71557 0.759504)
(100.378 -1.68909 0.761014)
(100.376 -1.67248 0.763863)
(100.37 -1.66425 0.767776)
(100.361 -1.66248 0.772439)
(100.35 -1.66535 0.777548)
(100.337 -1.67148 0.782816)
(100.323 -1.67982 0.788001)
(100.307 -1.68958 0.792889)
(100.289 -1.70021 0.797294)
(100.269 -1.71137 0.801034)
(100.247 -1.72291 0.803921)
(100.223 -1.73485 0.805734)
(100.198 -1.74735 0.806197)
(100.172 -1.76061 0.805005)
(100.147 -1.7746 0.801916)
(100.119 -1.78801 0.797051)
(99.9957 0.0444897 0.00562665)
(99.9811 0.0919679 0.0117652)
(99.9528 0.145704 0.0191196)
(99.9076 0.209094 0.0285114)
(99.8391 0.285569 0.0410026)
(99.7363 0.378479 0.0580582)
(99.58 0.490271 0.0817466)
(99.3381 0.619258 0.114912)
(98.9069 0.751576 0.161426)
(98.5662 0.752367 0.187851)
(97.7654 0.358783 0.255361)
(96.9782 -0.707192 0.340114)
(97.0915 -2.34104 0.428599)
(98.2179 -2.92311 0.49574)
(98.9169 -2.93655 0.529799)
(99.3671 -2.90664 0.547708)
(99.7268 -2.80012 0.56277)
(99.9724 -2.67093 0.577331)
(100.138 -2.54574 0.590269)
(100.245 -2.43554 0.599638)
(100.315 -2.3589 0.601469)
(100.247 -2.48399 0.673737)
(100.13 -2.45862 0.658795)
(100.015 -2.42376 0.64398)
(99.9093 -2.38928 0.63282)
(99.8057 -2.36309 0.626315)
(99.7027 -2.34542 0.623929)
(99.6013 -2.33416 0.624747)
(99.502 -2.32761 0.627857)
(99.4048 -2.32462 0.632387)
(99.3098 -2.32429 0.637544)
(99.2171 -2.32591 0.64265)
(99.1268 -2.32901 0.647147)
(99.0392 -2.33331 0.650598)
(98.9542 -2.33869 0.652646)
(98.8722 -2.34522 0.652972)
(98.7935 -2.35312 0.651198)
(98.7191 -2.36289 0.64688)
(98.6517 -2.37562 0.639563)
(98.5863 -2.3938 0.629305)
(99.9972 0.0498596 0.00479129)
(99.9875 0.103533 0.0099742)
(99.9686 0.16547 0.0161357)
(99.9375 0.240835 0.0239166)
(99.8889 0.336011 0.0341498)
(99.8126 0.459773 0.0479979)
(99.6897 0.625075 0.0671087)
(99.4837 0.851264 0.0938046)
(99.0718 1.1683 0.131231)
(98.6658 1.32439 0.154128)
(97.7186 1.45484 0.186973)
(95.631 0.663479 0.246579)
(94.4806 -3.48111 0.33379)
(98.347 -4.6844 0.397898)
(98.8028 -3.76297 0.374116)
(99.3267 -3.78629 0.315402)
(99.7332 -3.60428 0.283561)
(99.9164 -3.35996 0.280411)
(99.979 -3.12725 0.303878)
(99.9682 -2.89645 0.341792)
(98.9612 -2.59712 0.306669)
(95.2444 -2.31166 0.267489)
(95.3731 -2.30829 0.265662)
(95.4987 -2.2896 0.26525)
(95.5891 -2.27388 0.267345)
(95.6507 -2.27129 0.271582)
(95.6946 -2.28199 0.276692)
(95.7274 -2.30345 0.281616)
(95.7529 -2.33317 0.285791)
(95.7743 -2.36874 0.289009)
(95.7944 -2.40785 0.291252)
(95.8155 -2.44838 0.292615)
(95.8393 -2.48863 0.293163)
(95.8667 -2.52731 0.292955)
(95.8984 -2.56356 0.291983)
(95.9343 -2.5969 0.290091)
(95.9744 -2.62718 0.286895)
(96.0179 -2.6547 0.28168)
(96.0637 -2.68067 0.273231)
(96.1217 -2.70875 0.259432)
(99.999 0.0519582 0.00378717)
(99.9956 0.108036 0.00787107)
(99.9886 0.173666 0.0126067)
(99.9767 0.255257 0.0183724)
(99.9573 0.361304 0.0256353)
(99.9255 0.504743 0.0349972)
(99.8729 0.706735 0.0472082)
(99.7845 1.00461 0.0630521)
(99.6107 1.46985 0.0830691)
(99.3417 1.86161 0.0960937)
(98.6164 2.77911 0.113575)
(95.4423 5.71329 0.16018)
(77.3403 -4.68229 0.280871)
(56.962 -5.89422 -0.223695)
(76.6454 -5.12686 -0.196973)
(79.725 -4.14866 -0.317757)
(81.703 -3.62456 -0.387844)
(83.1571 -3.22294 -0.419562)
(84.4032 -2.93849 -0.445073)
(91.6413 -3.55574 -0.332074)
(95.9295 -3.31501 -0.437354)
(95.9707 -3.1431 -0.424856)
(96.051 -3.01764 -0.417098)
(96.1326 -2.9271 -0.416576)
(96.223 -2.86171 -0.421736)
(96.3292 -2.81607 -0.430259)
(96.4501 -2.78618 -0.440183)
(96.5815 -2.76847 -0.449937)
(96.7187 -2.75982 -0.458333)
(96.8578 -2.75759 -0.464616)
(96.9957 -2.75967 -0.468434)
(97.1298 -2.76442 -0.469769)
(97.2582 -2.77054 -0.468863)
(97.3798 -2.7771 -0.466147)
(97.4939 -2.78335 -0.462225)
(97.6003 -2.78869 -0.457925)
(97.6988 -2.79246 -0.454315)
(97.7891 -2.79369 -0.452858)
(97.8869 -2.79011 -0.455491)
(100.001 0.0499245 0.00280722)
(100.004 0.103973 0.00574524)
(100.01 0.167684 0.0089564)
(100.02 0.247582 0.0125287)
(100.034 0.3524 0.0165111)
(100.054 0.495204 0.020858)
(100.087 0.696709 0.0252487)
(100.146 0.991782 0.0287215)
(100.283 1.44138 0.0289663)
(100.326 1.84533 0.0288891)
(100.584 2.81698 0.0230241)
(102.343 5.33559 0.0125217)
(110.874 4.16396 0.0374847)
(108.945 -6.39418 -0.175315)
(102.783 -6.64224 -0.268324)
(101.127 -4.88296 -0.320319)
(100.681 -3.91257 -0.349032)
(100.505 -3.38244 -0.369123)
(100.415 -3.06761 -0.383839)
(100.343 -2.87565 -0.395614)
(100.235 -2.69479 -0.472158)
(100.268 -2.31609 -0.644955)
(100.254 -2.19794 -0.643062)
(100.248 -2.12845 -0.638441)
(100.248 -2.08952 -0.635763)
(100.248 -2.06651 -0.635957)
(100.248 -2.05342 -0.638402)
(100.249 -2.04755 -0.642427)
(100.249 -2.04684 -0.647437)
(100.248 -2.04957 -0.652854)
(100.246 -2.05456 -0.65819)
(100.242 -2.06099 -0.663107)
(100.237 -2.0683 -0.667422)
(100.232 -2.07607 -0.671082)
(100.226 -2.08394 -0.674223)
(100.22 -2.0915 -0.677123)
(100.214 -2.09827 -0.680237)
(100.21 -2.10344 -0.684173)
(100.209 -2.10568 -0.689629)
(100.217 -2.10213 -0.696916)
(100.003 0.0437225 0.00181397)
(100.012 0.0912938 0.00368501)
(100.031 0.147297 0.00547418)
(100.06 0.217407 0.0069917)
(100.104 0.308801 0.00791967)
(100.17 0.431224 0.00767467)
(100.272 0.598418 0.00515352)
(100.434 0.829393 -0.00168679)
(100.742 1.14805 -0.0166946)
(100.962 1.38398 -0.0266564)
(101.794 1.8355 -0.0614212)
(103.38 1.74524 -0.127076)
(105.136 -0.21749 -0.223643)
(104.697 -2.75963 -0.342577)
(102.948 -3.49417 -0.43697)
(101.759 -3.29049 -0.49775)
(101.143 -2.95593 -0.53388)
(100.81 -2.67439 -0.554992)
(100.612 -2.46372 -0.567228)
(100.477 -2.30663 -0.574119)
(100.378 -2.17702 -0.577284)
(100.277 -1.8897 -0.728636)
(100.242 -1.84823 -0.727178)
(100.221 -1.81443 -0.725051)
(100.211 -1.78803 -0.723456)
(100.207 -1.76621 -0.722542)
(100.207 -1.74766 -0.722018)
(100.208 -1.7322 -0.721637)
(100.211 -1.71972 -0.721237)
(100.214 -1.70992 -0.720707)
(100.216 -1.70243 -0.719991)
(100.218 -1.6969 -0.719094)
(100.22 -1.69297 -0.718092)
(100.221 -1.69028 -0.717088)
(100.222 -1.68838 -0.716275)
(100.222 -1.68679 -0.715893)
(100.222 -1.68498 -0.716256)
(100.224 -1.6823 -0.717745)
(100.228 -1.67822 -0.720778)
(100.241 -1.67288 -0.725676)
(100.004 0.0340653 0.00106666)
(100.019 0.0710294 0.00206613)
(100.048 0.114407 0.00268153)
(100.093 0.168353 0.00252411)
(100.16 0.237569 0.00100862)
(100.257 0.327664 -0.00279884)
(100.401 0.44466 -0.0104178)
(100.614 0.592839 -0.0243303)
(100.941 0.768466 -0.0486066)
(101.415 0.852147 -0.0890881)
(102.041 0.760326 -0.151557)
(102.703 0.249178 -0.239294)
(103.057 -0.708587 -0.343723)
(102.821 -1.52187 -0.453819)
(102.201 -1.82867 -0.545514)
(101.593 -1.84041 -0.610424)
(101.159 -1.76326 -0.653156)
(100.874 -1.66792 -0.681213)
(100.68 -1.57744 -0.699868)
(100.542 -1.49711 -0.71187)
(100.444 -1.42626 -0.718857)
(100.376 -1.36042 -0.721788)
(100.33 -1.30553 -0.723734)
(100.296 -1.25931 -0.725081)
(100.274 -1.22161 -0.72557)
(100.259 -1.19137 -0.725312)
(100.248 -1.16707 -0.724578)
(100.241 -1.14753 -0.723579)
(100.237 -1.13194 -0.72246)
(100.235 -1.11962 -0.721331)
(100.234 -1.11 -0.720292)
(100.233 -1.10264 -0.719437)
(100.233 -1.09714 -0.718863)
(100.233 -1.09317 -0.71866)
(100.232 -1.09036 -0.718954)
(100.232 -1.08835 -0.719881)
(100.233 -1.08673 -0.721611)
(100.234 -1.08509 -0.724344)
(100.238 -1.08316 -0.728285)
(100.244 -1.08105 -0.733492)
(100.005 0.021589 0.000533907)
(100.024 0.044933 0.000902175)
(100.06 0.0723047 0.000696106)
(100.115 0.106012 -0.000591623)
(100.196 0.148566 -0.00375757)
(100.311 0.202394 -0.0098615)
(100.473 0.268856 -0.0205456)
(100.696 0.345549 -0.0382009)
(100.999 0.419879 -0.06612)
(101.39 0.454284 -0.108251)
(101.845 0.394321 -0.168081)
(102.267 0.166276 -0.24638)
(102.491 -0.241929 -0.337693)
(102.386 -0.660061 -0.430047)
(102.014 -0.898869 -0.510783)
(101.572 -0.960261 -0.572288)
(101.204 -0.936857 -0.615897)
(100.935 -0.889056 -0.646533)
(100.74 -0.839194 -0.668293)
(100.594 -0.793481 -0.683537)
(100.484 -0.754126 -0.693749)
(100.402 -0.72343 -0.700172)
(100.341 -0.70106 -0.704324)
(100.295 -0.684788 -0.706686)
(100.262 -0.673134 -0.707411)
(100.239 -0.665013 -0.706812)
(100.222 -0.659395 -0.705268)
(100.211 -0.655532 -0.703091)
(100.204 -0.653015 -0.700518)
(100.2 -0.651606 -0.697759)
(100.197 -0.651111 -0.695)
(100.197 -0.651377 -0.692415)
(100.197 -0.652242 -0.690156)
(100.198 -0.653552 -0.68836)
(100.2 -0.655076 -0.687199)
(100.202 -0.656636 -0.686767)
(100.206 -0.658016 -0.687179)
(100.21 -0.659018 -0.68859)
(100.217 -0.659509 -0.691196)
(100.231 -0.65948 -0.695259)
(100.006 0.00739236 0.000258506)
(100.026 0.0153818 0.000351399)
(100.065 0.0247025 -0.000300776)
(100.126 0.0361087 -0.00209166)
(100.214 0.0503826 -0.00609861)
(100.336 0.0681736 -0.0132693)
(100.504 0.0894736 -0.0252668)
(100.727 0.112858 -0.0443348)
(101.013 0.133284 -0.0734587)
(101.356 0.13882 -0.115325)
(101.723 0.110198 -0.172013)
(102.041 0.0273188 -0.243083)
(102.21 -0.107337 -0.32383)
(102.153 -0.247939 -0.405406)
(101.894 -0.337934 -0.478388)
(101.546 -0.367479 -0.537214)
(101.22 -0.363914 -0.581174)
(100.961 -0.350565 -0.613116)
(100.764 -0.336267 -0.636396)
(100.614 -0.323117 -0.653174)
(100.498 -0.311709 -0.664889)
(100.41 -0.302316 -0.672659)
(100.345 -0.294239 -0.677521)
(100.296 -0.286776 -0.680159)
(100.261 -0.279567 -0.681157)
(100.236 -0.27252 -0.680843)
(100.218 -0.265599 -0.679514)
(100.205 -0.258824 -0.677476)
(100.197 -0.252274 -0.675013)
(100.192 -0.246044 -0.672379)
(100.19 -0.240207 -0.6698)
(100.189 -0.234814 -0.667468)
(100.189 -0.229898 -0.665537)
(100.191 -0.225464 -0.664095)
(100.193 -0.221467 -0.6635)
(100.195 -0.217891 -0.66369)
(100.199 -0.214702 -0.664712)
(100.203 -0.211869 -0.666689)
(100.21 -0.209473 -0.66978)
(100.219 -0.208001 -0.674203)
(99.9939 0.0054297 0.0118254)
(99.9733 0.0110807 0.024489)
(99.9348 0.0170782 0.0393673)
(99.8777 0.02341 0.0579962)
(99.8005 0.0297945 0.0820563)
(99.7014 0.0354839 0.113535)
(99.5796 0.0389152 0.154556)
(99.4378 0.0373172 0.207449)
(99.2842 0.0263256 0.274262)
(99.1367 0.000114081 0.355781)
(99.0255 -0.0467516 0.450566)
(98.9874 -0.112176 0.553786)
(99.0464 -0.1794 0.657264)
(99.1945 -0.230203 0.752564)
(99.3922 -0.255186 0.833521)
(99.5959 -0.263048 0.899496)
(99.7806 -0.261537 0.952555)
(99.9384 -0.255104 0.995185)
(100.069 -0.246826 1.02913)
(100.174 -0.239014 1.0557)
(100.257 -0.232446 1.07607)
(100.323 -0.227001 1.09176)
(100.374 -0.222614 1.10426)
(100.414 -0.2196 1.11443)
(100.447 -0.217786 1.12262)
(100.473 -0.2167 1.12899)
(100.495 -0.216019 1.13372)
(100.513 -0.215541 1.13712)
(100.527 -0.2151 1.13954)
(100.538 -0.214578 1.14125)
(100.547 -0.213932 1.14246)
(100.553 -0.213197 1.14338)
(100.558 -0.21243 1.14423)
(100.56 -0.211717 1.14513)
(100.562 -0.21114 1.14611)
(100.563 -0.210807 1.14713)
(100.564 -0.21081 1.14806)
(100.567 -0.21121 1.14871)
(100.571 -0.212075 1.14878)
(100.58 -0.213537 1.14779)
(99.9941 0.0161493 0.0115611)
(99.9739 0.0330094 0.0239732)
(99.9362 0.0510434 0.0386343)
(99.8796 0.0703556 0.0570739)
(99.802 0.0903083 0.0810293)
(99.7004 0.108939 0.112637)
(99.5719 0.121885 0.154355)
(99.4164 0.120963 0.20899)
(99.2392 0.0925849 0.279299)
(99.0569 0.0175038 0.36708)
(98.9074 -0.120331 0.471519)