/*--------------------------------*- C++ -*----------------------------------*\
| =========                 |                                                 |
| \\      /  F ield         | OpenFOAM: The Open Source CFD Toolbox           |
|  \\    /   O peration     | Version:  2306                                  |
|   \\  /    A nd           | Website:  www.openfoam.com                      |
|    \\/     M anipulation  |                                                 |
\*---------------------------------------------------------------------------*/
FoamFile
{
    version     2.0;
    format      ascii;
    arch        "LSB;label=32;scalar=64";
    class       volVectorField;
    location    "0.3";
    object      Force;
}
// * * * * * * * * * * * * * * * * * * * * * * * * * * * * * * * * * * * * * //

dimensions      [1 1 -2 0 0 0 0];

internalField   uniform (0 0 0);

boundaryField
{
    walls
    {
        type            calculated;
        value           uniform (0 0 0);
    }
    inlet
    {
        type            calculated;
        value           uniform (0 0 0);
    }
    outlet
    {
        type            calculated;
        value           uniform (0 0 0);
    }
    NASA
    {
        type            calculated;
        value           nonuniform List<vector> 
14179
(
(-0.0148114 -0.136156 1.09112e-05)
(-0.013289 -0.109796 7.96157e-06)
(-0.0678883 -0.548913 0.00104806)
(-0.101292 -0.815395 0.00362401)
(-0.0674317 -0.545647 0.000547303)
(-0.110369 -0.888373 0.00399992)
(0.212823 0.923721 -0.000440884)
(0.0877614 0.44054 -8.05787e-05)
(0.642203 3.14902 0.00324996)
(0.0945094 0.47445 -8.60026e-05)
(-0.00159679 -0.0142899 8.95921e-06)
(-0.0179354 -0.146948 0.000644145)
(0.130039 0.649914 -0.0026544)
(-0.0357476 -0.325426 0.00154749)
(0.0616679 0.30785 -0.00122754)
(1.37569 0.928014 0.00283373)
(1.3858 0.918524 -0.00046013)
(0.0211711 0.11853 -6.31037e-05)
(0.140651 0.834547 -0.000119414)
(1.28103 0.849306 -0.00390545)
(-0.0173855 -0.24316 -8.39489e-07)
(-0.0217115 -0.201789 -0.000106764)
(-0.0198816 -0.275903 -0.000215307)
(-0.00896535 -0.0652327 4.76707e-06)
(-0.0134799 -0.111424 3.00858e-05)
(-0.00968819 -0.0704946 2.45209e-05)
(-0.0129958 -0.107144 0.000473192)
(-0.015217 -0.109136 0.000498187)
(-0.0133772 -0.122315 0.000539348)
(-0.0157045 -0.215886 0.00403812)
(0.0465247 0.203176 7.19572e-07)
(0.0521963 0.246109 -6.53538e-06)
(0.0561393 0.264696 -0.000103609)
(0.0458874 0.199866 -2.46432e-05)
(0.0692701 0.254148 -3.44999e-05)
(0.0659254 0.241717 -8.35157e-05)
(0.0383396 0.139137 -1.64403e-05)
(0.0366137 0.132785 -5.00555e-05)
(-0.00198799 -0.00954392 0.000159213)
(-0.0131842 -0.0641768 0.000762894)
(0.167747 0.612885 -0.00202812)
(0.0978567 0.352978 -0.000776683)
(0.0924122 0.463658 -0.000107126)
(-0.0062579 -0.0439228 4.67563e-06)
(-0.00568297 -0.0398869 2.30071e-06)
(0.14892 0.747667 -0.000169317)
(-0.00985543 -0.0682754 0.000346128)
(0.0966399 0.482776 -0.00128237)
(0.0897664 0.448868 -0.00132227)
(0.107005 0.437198 -0.000386886)
(0.0839949 0.312244 -2.51647e-05)
(0.0836342 0.310914 -6.7483e-05)
(-0.0642601 1.5675 -0.000238234)
(1.38521 0.921026 -0.000760933)
(-0.0634945 1.56052 8.13483e-05)
(-0.00270907 1.32251 -0.000227846)
(0.0675874 1.02053 -1.06082e-05)
(0.0569229 0.860605 -0.000191842)
(-0.0026589 1.32751 -2.65418e-05)
(0.0899454 0.353549 -6.59239e-05)
(0.147354 0.873672 -0.000245578)
(0.00788846 0.0287294 -6.15602e-06)
(-0.0230679 0.571278 -0.00157206)
(0.926516 0.6325 0.0760833)
(-0.000810358 0.536405 -0.00177157)
(0.0270976 0.411915 -0.00123695)
(0.127305 0.745643 0.00579768)
(-0.0149208 -0.149235 1.43373e-05)
(-0.0147529 -0.135707 2.15203e-05)
(-0.0995933 -0.801836 0.00355982)
(-0.0117602 -0.0932051 7.49715e-06)
(-0.0132678 -0.10963 1.70687e-05)
(1.32587 0.878009 -0.00468584)
(1.27911 0.84731 -0.00430903)
(0.345022 2.04738 -0.00987955)
(0.259608 1.53498 -0.00682422)
(-0.111784 -0.901032 0.00257212)
(-0.0563153 -0.350786 0.00161804)
(-0.0554405 -0.347742 0.001646)
(-0.0421789 -0.24767 0.00116634)
(0.155786 0.672326 -0.00314596)
(0.174281 0.753994 -0.00345826)
(0.760674 1.30603 -4.79054e-05)
(0.761041 1.30472 -0.000312881)
(0.0877147 0.440206 -9.59711e-05)
(0.0803003 0.385784 -6.06596e-05)
(-0.000592956 -0.00515242 -1.626e-07)
(0.00112064 0.00529816 -2.68354e-07)
(0.00115223 0.00547723 -2.09239e-06)
(-0.000583813 -0.00508772 4.97725e-07)
(0.0946548 0.475166 -8.65495e-05)
(0.092126 0.475136 -7.19504e-05)
(-0.0201474 -0.164847 0.00077428)
(-0.0135292 -0.0970785 0.000477819)
(-0.0203525 -0.145474 0.000681672)
(-0.0123459 -0.0852458 0.00044678)
(-0.018094 -0.124241 0.000539078)
(0.0851004 0.424888 -0.00197377)
(-0.0201531 -0.183571 0.000844834)
(-0.0248693 -0.342128 0.00172601)
(-0.0209908 -0.295268 0.000755721)
(0.0797993 0.398797 -0.00182452)
(1.37286 0.922037 -0.00265495)
(0.0903019 0.532271 -9.5256e-05)
(0.0999185 0.558813 -5.31035e-05)
(0.104761 0.585587 -0.000109004)
(0.17732 1.23439 -0.000170394)
(0.0939286 0.557117 -8.30778e-05)
(0.142727 0.846627 -0.000126541)
(0.0246589 0.0233135 1.85976e-05)
(0.334687 -0.123338 0.00335552)
(0.348314 -0.138098 0.00163653)
(0.0102369 0.00981345 -2.77897e-05)
(-0.00632272 -0.0272151 0.000200873)
(0.0225039 0.0830271 -0.00032537)
(0.00297338 0.0103779 2.56921e-05)
(0.0226339 0.0912065 -0.000252006)
(-0.00921762 -0.0411939 0.000209853)
(-0.00145755 -0.0085748 0.000120611)
(0.0047269 0.0198218 -3.5639e-05)
(-0.0179985 -0.087104 0.000404577)
(-0.00116754 0.733914 -0.00311007)
(0.040678 0.608854 -0.00266895)
(-0.00169203 0.983467 -0.00423549)
(0.0317934 0.482255 -0.00242788)
(-0.0349635 0.871309 -0.0038854)
(1.10763 0.745261 -0.00371453)
(-0.0473871 1.16837 -0.00498922)
(0.109294 0.647273 -0.00387364)
(0.155062 0.607524 -0.00299468)
(0.11672 0.456682 -0.00201818)
(0.107381 0.391997 -0.00171264)
(0.151587 0.554075 -0.00242564)
(0.0624382 0.225396 -0.000982655)
(0.0850578 0.307577 -0.0014171)
(-0.0134414 -0.15139 6.01649e-06)
(-0.0172689 -0.241195 3.18488e-05)
(-0.0108075 -0.0831873 6.98401e-06)
(-0.00881259 -0.0641257 9.00337e-06)
(0.000602168 0.00174773 0.54145)
(-0.0130253 -0.102584 0.000459909)
(0.000572529 0.00166992 0.514937)
(-0.0144912 -0.110513 0.000505755)
(0.000891968 0.00204107 0.585391)
(-0.0131046 -0.130985 0.000643435)
(0.00114506 0.00249244 0.586283)
(-0.0122118 -0.140859 0.00148663)
(0.0519928 0.245135 -4.73563e-05)
(0.0388136 0.176516 -1.49792e-05)
(0.0391275 0.177967 -3.51223e-05)
(0.046108 0.2008 -2.92048e-05)
(0.0453521 0.19974 -1.70672e-05)
(0.0455883 0.200802 -3.6287e-05)
(0.0712493 0.261339 -6.02859e-05)
(0.0237044 0.117877 -2.16597e-05)
(0.021146 0.107262 -1.98884e-05)
(0.0391114 0.141918 -3.08171e-05)
(0.0358645 0.126221 -1.39171e-05)
(-0.00646483 -0.0296068 0.000284049)
(-0.00550749 -0.0262466 0.000305665)
(0.000444982 0.00134306 0.321873)
(0.000443732 0.00129461 0.314959)
(0.000433383 0.0012707 0.311456)
(0.000326413 0.00126869 0.356721)
(0.0919048 0.313309 -0.000441897)
(0.157448 0.550775 0.00241017)
(-7.06154e-06 0.00129287 0.334793)
(0.000356735 0.000675771 0.302463)
(0.000121789 0.000444903 0.107016)
(0.0805109 0.282735 -0.000594849)
(0.283981 0.65974 -8.8321e-06)
(0.166783 0.587998 4.67977e-05)
(0.165102 0.582118 -5.76597e-05)
(0.0776279 0.362567 -5.17452e-05)
(0.0799648 0.373509 -7.87565e-05)
(0.126796 0.605699 -8.87175e-05)
(0.0781041 0.347816 -7.46103e-05)
(0.0806825 0.366218 -5.00151e-05)
(0.0835181 0.37902 -7.98814e-05)
(0.0764455 0.340528 -4.22035e-05)
(-0.00521979 -0.0365026 4.39206e-06)
(-0.00618268 -0.0433987 4.93686e-06)
(0.151292 0.801387 -9.34263e-05)
(0.270983 0.467528 0.0101778)
(0.00113224 0.00459762 0.873655)
(0.000350953 0.00239893 0.416599)
(0.0497436 0.144774 -0.000255881)
(-0.0118501 -0.0739788 0.000419696)
(-0.0119011 -0.0751926 0.000567943)
(0.00103032 0.00279689 0.688332)
(0.00035972 0.000741066 0.311847)
(0.0958406 0.492248 -0.000329492)
(0.000560096 0.000790782 0.376164)
(0.139516 0.733787 0.00332525)
(0.000585879 0.00157117 0.349547)
(0.000435794 0.00135411 0.332116)
(-0.000299278 0.00109079 0.355794)
(6.99542e-05 0.000575107 0.112455)
(0.0800365 0.382532 -0.00115467)
(0.102584 0.476874 -0.000392568)
(0.000477209 0.000515505 0.20612)
(9.73322e-05 0.000662107 0.107605)
(0.168412 0.708151 -9.62718e-05)
(0.0840178 0.312329 -3.84748e-05)
(0.0799952 0.306222 -3.09351e-05)
(0.0953205 0.388583 -5.80827e-05)
(0.0669203 0.269533 -1.71091e-05)
(-0.883377 2.82405 -0.02166)
(-0.0642852 1.57453 -9.59634e-05)
(-0.195544 1.82757 0.000794271)
(0.0660596 0.996525 -0.000143092)
(0.0528452 1.12628 -8.75343e-05)
(-0.00268697 1.33633 -8.968e-05)
(0.0322972 1.21159 -5.84e-05)
(0.104088 1.14172 -0.00010314)
(0.131187 1.69113 -0.000138564)
(0.129676 1.67252 -0.000168606)
(0.103659 1.13654 -0.000100812)
(0.122019 1.24586 -0.000131706)
(0.130021 1.20878 -2.44568e-05)
(0.133384 1.24097 -0.000164428)
(0.119333 1.2173 -3.20195e-05)
(0.0658935 0.273117 -5.7974e-05)
(0.0594224 0.235849 -5.15821e-05)
(0.0938399 0.36881 -7.51968e-05)
(0.107541 0.728503 -0.000122471)
(0.103225 0.650137 -9.67572e-05)
(-0.000300409 0.00148333 0.576048)
(0.00100264 0.00401421 0.906724)
(0.00129962 0.00429569 0.000124479)
(0.000460513 0.00413672 0.749544)
(0.0024406 0.00846441 0.000110081)
(0.000541705 0.0107155 0.27625)
(-0.0611779 0.586136 -0.00218183)
(0.00756832 -4.32165e-05 1.75457)
(0.000400896 0.00105401 0.305579)
(0.0141473 0.519637 -0.00177996)
(0.000788951 0.000508407 0.246399)
(0.0232533 0.488209 -0.00155194)
(0.0614361 0.529215 -0.00177985)
(0.0611484 0.519193 -0.00172883)
(0.000397519 0.000852725 0.245695)
(0.000427874 0.000934161 0.270397)
(0.057614 0.532233 -0.00167835)
(0.0523774 0.529133 -0.00137416)
(0.047411 0.519653 -3.19342e-05)
(2.15911e-05 -0.000114844 0.227132)
(-0.0193764 -0.10643 0.00139783)
(0.000242935 0.00164213 0.510668)
(0.0913601 0.508444 -0.00131051)
(0.000436938 0.00131145 0.322339)
(0.000439409 0.00131698 0.32352)
(0.483053 -0.192395 -0.00371086)
(0.221971 0.209911 0.00175158)
(0.000187507 0.000233868 0.0774605)
(-0.0534569 -0.525879 0.00169503)
(-0.0704927 -0.569556 0.00184406)
(-0.0546461 -0.537429 0.00213046)
(-0.07082 -0.572165 0.00188811)
(-0.0735831 -0.594177 0.00236686)
(-0.0580637 -0.5707 0.00245241)
(-0.0812655 -0.655498 0.00283171)
(0.176788 0.765651 -0.00351774)
(0.44454 2.178 -0.00978751)
(0.180321 0.781349 -0.00358085)
(0.424019 2.07693 -0.00935521)
(-0.067471 -0.545844 0.00061416)
(-0.0419173 -0.261666 0.00118648)
(-0.105664 -0.850301 0.00379102)
(-0.047714 -0.297399 0.00135223)
(1.38496 0.918077 -0.00112235)
(1.38452 0.917676 -0.000512692)
(0.227977 0.989537 -0.000597621)
(0.630445 3.09273 -0.00304322)
(0.581608 2.85336 -0.00181652)
(0.250147 1.08553 -0.0010132)
(0.363311 2.15417 -0.00144858)
(0.397439 2.356 -0.00239091)
(-0.00208279 -0.01618 1.72489e-05)
(-0.0016762 -0.0142811 1.00486e-05)
(0.0210979 0.119212 -0.000123512)
(0.0215071 0.121014 -7.97066e-05)
(0.0515071 0.223794 -0.00088784)
(0.0379092 0.17242 -0.000681568)
(0.0616971 0.268837 -0.00110654)
(0.029579 0.133647 -0.000497467)
(-0.109508 -0.882066 0.0039666)
(-0.0695079 -0.505619 0.00228364)
(0.0190289 0.089822 -0.000277872)
(-0.0102029 -0.0568348 0.00031754)
(0.0627276 0.22884 -0.00106799)
(0.0706435 0.257686 -0.00117909)
(0.0340427 0.122778 -0.00057501)
(0.039428 0.142195 -0.000651252)
(0.285373 1.29077 -0.000644857)
(0.176824 0.76686 -0.000215851)
(0.317731 1.5021 -0.000782422)
(0.135549 0.680085 -0.000220498)
(-0.019298 -0.16235 0.000209122)
(-0.0444337 -0.329143 0.000422281)
(-0.00721664 -0.0526953 -3.74141e-06)
(-0.000668641 -0.00924706 7.00635e-06)
(-0.0196607 -0.134468 6.9395e-05)
(-0.0261208 -0.182175 0.000130375)
(0.096098 0.392946 7.86548e-05)
(0.0833346 0.309854 -0.00015552)
(0.0834902 0.310392 -9.32155e-05)
(0.107441 0.440845 -0.000806781)
(0.163737 0.719267 -0.000332503)
(0.140351 0.646845 -0.00019788)
(0.171111 0.752299 -0.00037719)
(0.179569 0.837422 -0.000223947)
(-0.00272088 1.28974 -0.000254745)
(0.0676707 1.02327 -0.000509617)
(-0.00251465 1.12263 -0.000484086)
(0.0568012 0.859197 -0.000231584)
(-0.0632103 1.54242 -0.000274741)
(1.38597 0.919872 -0.00046249)
(-0.0573953 1.39976 -0.00058612)
(0.498963 4.28119 -0.00266162)
(0.0935891 0.367688 -0.000138248)
(0.0853617 0.33523 -0.000184876)
(0.0598937 0.219484 -0.000114022)
(0.0643572 0.235921 -9.56695e-05)
(0.0557219 0.292067 -0.00019109)
(0.181447 0.895553 -0.00132791)
(0.020451 0.11364 -8.71056e-05)
(0.0459709 0.246584 -0.000130508)
(0.732784 4.58687 0.000868962)
(0.370655 2.47704 -9.61887e-05)
(0.0317553 0.115085 -6.20846e-05)
(0.0356366 0.129209 -5.41047e-05)
(1.26283 0.839179 -0.00281025)
(0.0898291 0.622498 -0.00280845)
(0.245273 0.230111 -0.00102678)
(0.496578 -0.205844 0.00041475)
(0.232278 0.218598 -0.0010541)
(0.515798 -0.214177 0.000166841)
(0.0684881 0.25116 -7.69646e-05)
(0.0333739 0.117359 -4.52037e-05)
(0.0375716 0.136299 -4.06514e-05)
(0.283792 0.659331 -3.2445e-05)
(0.273758 0.803666 -0.000132613)
(0.000929546 0.00311401 0.740962)
(0.000375849 0.00164702 0.365269)
(0.000556925 0.000815737 0.38501)
(-0.198068 1.8352 -0.000274025)
(-0.0645848 1.57789 -0.000128097)
(1.38107 0.921614 -0.00142307)
(0.0282773 0.0267319 1.06892e-05)
(0.352593 -0.144921 0.000128789)
(0.348908 -0.141856 0.000556355)
(0.028715 0.0271056 -2.94438e-06)
(0.000564523 0.00193915 0.553828)
(0.000431986 0.000988953 0.383561)
(0.000397108 0.00108282 0.344298)
(0.000609409 0.00162303 0.367235)
(-0.0900598 -0.725721 0.00319403)
(1.36263 0.902428 -0.00482699)
(1.34942 0.89366 -0.00477664)
(1.3228 0.875992 -0.00467587)
(1.34851 0.893046 -0.0047739)
(0.394966 1.93357 -0.00872436)
(0.173694 0.751653 -0.00345465)
(0.175506 0.759971 -0.00349257)
(0.41647 2.03979 -0.00919642)
(0.268766 1.58938 -0.00710811)
(0.287431 1.70006 -0.0075667)
(-0.0237566 -0.140605 0.000653359)
(-0.0305839 -0.180137 0.000835956)
(-0.0551772 -0.343547 0.00157502)
(-0.0497611 -0.310017 0.00141256)
(-0.040292 -0.236507 0.00110562)
(-0.0331364 -0.194916 0.000905834)
(0.252864 2.1538 -0.00947827)
(0.239956 2.04301 -0.00907707)
(0.0257721 0.0951926 -0.000384038)
(0.0241161 0.0975166 -0.000432071)
(0.0359602 0.146289 -0.000392601)
(0.0339027 0.125456 -0.000531872)
(0.00205453 0.00810244 3.63295e-05)
(0.0283497 0.121479 -0.000393294)
(0.0375731 0.162475 -0.000609648)
(0.0227996 0.101619 -0.000311833)
(0.0419079 0.155259 -0.000674249)
(0.0461189 0.188156 -0.000553643)
(0.0361953 0.133992 -0.000573027)
(0.0425358 0.636389 -0.00277656)
(-0.00178256 1.02698 -0.00442252)
(-0.0019888 1.13208 -0.00487235)
(0.0468396 0.701048 -0.00306331)
(-0.0548513 1.35122 -0.00577505)
(1.31305 0.869496 -0.00463268)
(-0.0573579 1.41262 -0.00604008)
(-0.0492442 1.21386 -0.0051869)
(-0.0536373 1.3215 -0.00564876)
(1.31016 0.867576 -0.00462246)
(-0.00204686 1.1606 -0.00499395)
(0.0511674 0.766939 -0.00334312)
(-0.00216147 1.21711 -0.00523875)
(0.0481548 0.721218 -0.00312249)
(0.225606 1.33476 -0.00575083)
(0.410181 2.55296 -0.0134865)
(0.236293 1.57553 -0.00702735)
(0.246228 1.45499 -0.00657677)
(0.403409 2.5178 -0.01115)
(0.375992 2.34584 -0.0106138)
(0.194881 1.29663 -0.00703589)
(-0.0814036 -0.598391 0.00225457)
(-0.102576 -0.826202 0.00380541)
(-0.0665775 -0.442395 0.00201603)
(-0.0564729 -0.352251 0.00164509)
(-0.0798092 -0.535638 0.00234826)
(-0.0527209 -0.329639 0.00157227)
(-0.0233772 -0.130305 0.00064696)
(-0.0440039 -0.258806 0.00124307)
(0.00540816 0.0203552 0.00015707)
(-0.0465549 -0.275038 0.00134518)
(0.229817 1.03328 -0.00495451)
(0.178036 0.769821 -0.00350753)
(0.236187 1.11375 -0.00504915)
(0.175867 0.760668 -0.00347532)
(0.2233 1.00736 -0.00459029)
(0.240078 1.13135 -0.00553908)
(0.366025 1.79012 -0.008265)
(0.104672 0.40946 -0.00182282)
(0.0884118 0.345768 -0.00157137)
(0.0943713 0.344404 -0.00152294)
(0.0743455 0.271197 -0.00123119)
(0.0858162 0.335647 -0.00153907)
(0.079849 0.312373 -0.0014484)
(0.0547589 0.197611 -0.000871053)
(0.0419533 0.151307 -0.000686931)
(0.125728 0.291547 -0.00127312)
(0.106959 0.247914 -0.00104275)
(-0.0207387 -0.157345 0.000746115)
(-0.0181866 -0.130213 0.000622042)
(0.0807589 0.4131 -0.00215058)
(0.0853372 0.426255 -0.00189179)
(0.123444 0.652166 -0.00354169)
(-0.019337 -0.191368 0.000811601)
(-0.019971 -0.182318 0.00084407)
(-0.0172483 -0.190114 0.000556961)
(-0.0213329 -0.296328 0.00128524)
(0.0766383 0.367057 -0.00179127)
(0.0812344 0.405824 -0.00179125)
(-0.00389369 -0.0165142 0.00012884)
(0.0063049 0.024386 5.4967e-06)
(-0.000312264 -0.001989 7.97913e-05)
(0.0133395 0.0489199 -0.00014566)
(0.017583 0.648532 -0.00277932)
(-0.00139975 0.848051 -0.00364991)
(0.0268337 0.567654 -0.00251448)
(0.0360301 0.540391 -0.00243385)
(-0.105786 1.00441 -0.00567405)
(-0.0413331 1.02193 -0.0044102)
(1.22709 0.819698 -0.00120163)
(-0.461871 1.50262 -0.00592746)
(-0.0452304 1.11614 -0.00478247)
(-0.141361 1.31407 -0.00552234)
(-0.0117861 -0.0616528 0.000338401)
(-0.00856195 -0.0441192 0.000254237)
(-0.010372 -0.053188 0.000300166)
(-0.00995431 -0.0522785 0.000292563)
(-0.0248575 -0.136544 0.000545476)
(0.000873488 0.00196361 0.391413)
(0.0582162 0.392068 -0.00175883)
(0.0918304 0.636526 -0.0029583)
(0.0602601 0.40554 -0.00187749)
(0.12527 0.45746 -0.00198012)
(0.152071 0.555617 -0.00240699)
(0.0721608 0.26058 -0.0011245)
(0.0610701 0.213767 -0.000931383)
(0.0801428 0.281033 -0.0013996)
(0.088098 0.318327 -0.00139066)
(0.447564 -0.186986 -0.00239115)
(0.20922 0.192177 -2.43742e-05)
(0.255854 0.238031 -0.00086585)
(0.520705 -0.217176 -0.000653966)
(0.227427 0.986639 -0.0044035)
(0.585968 2.87366 -0.0125799)
(0.212816 0.92341 -0.00404787)
(0.554098 2.71697 -0.0120429)
(-0.0676705 -0.547261 0.00086967)
(-0.00255314 -0.0190244 3.84451e-05)
(-0.00236228 -0.0178512 2.99887e-05)
(0.244047 1.05886 -0.00170459)
(0.619176 3.0375 -0.00587732)
(0.2033 0.882134 -0.00170463)
(-0.0614061 -0.446874 0.00199377)
(0.1762 0.775079 -0.000699916)
(0.142922 0.659807 -0.000686722)
(0.17624 0.775321 -0.000806827)
(0.142921 0.659731 -0.000601632)
(0.0634491 0.232392 -0.000184894)
(0.0589308 0.215899 -0.00014725)
(-0.0343421 -0.25187 0.000255975)
(0.16124 0.798233 -0.000830438)
(0.0629539 0.331134 -0.000344554)
(0.0336319 0.121812 -9.38771e-05)
(0.0308377 0.111722 -7.27412e-05)
(1.38617 0.918858 -0.000411756)
(0.0306185 0.0287852 -1.95409e-05)
(0.380312 -0.157854 8.78925e-06)
(0.0294578 0.027683 -2.28285e-05)
(0.370087 -0.153539 2.35199e-07)
(-0.0196685 -0.124525 0.000552555)
(-0.0224502 -0.141674 0.000632344)
(-0.0398244 -0.248766 0.00112701)
(-0.0953173 -0.767703 0.00339674)
(-0.0346754 -0.217033 0.000980304)
(0.182091 0.789167 -0.0036145)
(0.194177 0.842311 -0.00384739)
(0.104748 0.458842 -0.00200072)
(0.0787342 0.361739 -0.00157267)
(0.108301 0.474516 -0.00207272)
(0.0753681 0.346141 -0.00150028)
(0.0449822 0.205322 -0.000842812)
(0.0703469 0.307045 -0.00128795)
(0.0772843 0.337668 -0.00143397)
(0.0509012 0.232796 -0.000974851)
(0.0571391 0.209123 -0.00100556)
(0.0556075 0.203381 -0.000977669)
(0.0609715 0.222459 -0.00104383)
(0.057207 0.20882 -0.000991221)
(0.0149235 0.076501 -0.000310236)
(0.0702291 0.344906 -0.00147925)
(-0.0689889 -0.501709 0.00226109)
(0.0267014 0.12825 -0.000469177)
(-0.0063814 -0.0364156 0.00021617)
(0.033897 0.164169 -0.00064249)
(0.0310172 0.112278 -0.00054575)
(0.0296838 0.107368 -0.000521863)
(0.0328404 0.118454 -0.000558351)
(0.0303152 0.109398 -0.000523213)
(1.32487 0.877341 -0.00467983)
(1.293 0.856242 -0.00448931)
(0.126151 0.118855 -0.00060795)
(0.35948 -0.149216 0.000405164)
(0.36957 -0.153404 0.000418299)
(0.114351 0.107726 -0.000554844)
(0.475054 -0.196947 0.000484888)
(0.216094 0.203565 -0.00100659)
(0.202019 0.19037 -0.000948126)
(0.455057 -0.188763 0.000479892)
(1.39667e-05 -0.0176696 3.4946e-05)
(8.15034e-05 -0.0126904 3.42251e-05)
(-0.0527236 -0.518763 0.00141244)
(-0.000165925 -0.0308948 0.000101148)
(-6.92828e-05 -0.0237613 6.44953e-05)
(-0.0690558 -0.558134 0.00152709)
(-0.0542724 -0.533799 0.00197411)
(-1.99241e-05 -0.0202229 8.26228e-05)
(-0.000125853 -0.0279949 0.000104216)
(-0.0721252 -0.582568 0.00213963)
(-0.0723337 -0.584232 0.00217068)
(1.59779e-05 -0.0175474 8.12338e-05)
(-0.0561638 -0.552204 0.0023132)
(4.65564e-05 -0.0153141 6.84248e-05)
(-0.0770795 -0.622082 0.00261901)
(1.37863 0.913137 -0.00481806)
(1.37709 0.912092 -0.00484117)
(1.37491 0.910625 -0.0048556)
(1.37905 0.913384 -0.00485044)
(0.225736 0.979245 -0.00440188)
(0.52538 2.57635 -0.0114825)
(0.544421 2.66943 -0.0118508)
(0.182629 0.792515 -0.00357207)
(0.177607 0.769323 -0.00353138)
(0.234246 1.05768 -0.00481632)
(0.265043 1.25112 -0.00564809)
(0.437975 2.14568 -0.00964922)
(0.179084 0.775851 -0.0035582)
(0.241557 1.09108 -0.00495605)
(0.254469 1.20086 -0.00543442)
(0.430497 2.10885 -0.00949795)
(1.38716 0.919506 -0.00224516)
(1.3884 0.920358 -0.00179038)
(1.38662 0.919176 -0.00121531)
(1.38962 0.921178 -0.0017205)
(0.411563 2.43985 -0.00277432)
(0.427679 2.53595 -0.00377693)
(-0.00214135 -0.0165091 1.9529e-05)
(-0.0675749 -0.546537 0.00080515)
(-0.00225354 -0.0171832 2.688e-05)
(0.0206154 0.116447 -0.000224144)
(0.0208303 0.117695 -0.000189511)
(0.0210469 0.118945 -0.000137331)
(0.0209557 0.118424 -0.000177405)
(0.259521 1.12613 -0.00119934)
(0.25484 1.10582 -0.00163292)
(0.639052 3.13513 -0.00467114)
(-0.0554058 -0.368469 0.00165473)
(-0.0437512 -0.272971 0.00123858)
(-0.0650354 -0.473065 0.00211748)
(-0.0458068 -0.285641 0.00129744)
(-0.060184 -0.399938 0.00180218)
(0.447395 3.82951 -0.00358434)
(0.475043 4.06719 -0.00321529)
(0.0833031 0.309744 -0.000177925)
(0.107503 0.441135 0.000302722)
(0.107613 0.441619 -0.000925269)
(0.0832487 0.309573 -0.00024216)
(0.139352 0.64254 -0.000458141)
(0.174586 0.767777 -0.000489517)
(0.175743 0.773003 -0.000596913)
(0.142363 0.656969 -0.000514667)
(0.107613 0.441625 0.000181873)
(0.083161 0.309281 -0.000327959)
(0.107572 0.441472 -0.00104434)
(0.083238 0.309544 -0.000266098)
(0.070192 1.06201 -0.000583925)
(-0.00253742 1.11482 -0.000536344)
(-0.00284876 1.26936 -0.000872144)
(0.0774214 1.17096 -0.00091418)
(-0.060979 1.4854 -0.00113052)
(1.38368 0.917198 -0.000876283)
(-0.0694706 1.69189 -0.00165153)
(-0.0557804 1.36001 -0.000657038)
(-0.058298 1.42038 -0.000976448)
(1.3833 0.916924 -0.000771552)
(-0.00303445 1.35496 -0.00102287)
(0.0770368 1.16333 -0.00118404)
(-0.00344798 1.53775 -0.00151796)
(0.0798538 1.20739 -0.00101019)
(0.305885 1.38394 -0.000826197)
(0.233521 1.01352 -0.000730763)
(0.618295 3.03322 -0.00256472)
(0.381588 1.80389 -0.0017352)
(0.331853 1.56924 -0.000927153)
(0.604517 2.96579 -0.00224022)
(0.239966 1.04145 -0.00086689)
(0.343957 1.55579 -0.00146539)
(0.0821648 0.322652 -0.000192809)
(0.0790918 0.310569 -0.000226448)
(0.0585506 0.214541 -0.000118175)
(0.0581888 0.213199 -0.000136835)
(0.0786243 0.308706 -0.000241857)
(0.634135 3.96783 -0.00297218)
(0.375396 2.22531 -0.00175228)
(0.634247 3.96896 -0.00316486)
(0.404694 2.70629 -0.00250846)
(0.415514 2.7785 -0.00220103)
(0.385919 2.28781 -0.00201139)
(-0.0324649 -0.238791 0.000162984)
(-0.0209728 -0.141871 0.000145892)
(-0.00198026 -0.0156299 1.48692e-05)
(-0.0202422 -0.137674 9.41569e-05)
(-0.00196019 -0.0156881 1.31252e-05)
(0.062223 0.326732 -0.000213236)
(0.158861 0.785551 -0.000512233)
(0.161205 0.797702 -0.000624196)
(0.0471253 0.253911 -0.000264149)
(0.0211794 0.11961 -0.000109003)
(0.0471303 0.253405 -0.000168039)
(0.0211919 0.119514 -9.34537e-05)
(0.0306152 0.11094 -6.21166e-05)
(0.0303069 0.109812 -6.81024e-05)
(0.0649023 0.236757 -0.00109902)
(0.06735 0.24567 -0.00113304)
(0.031404 0.10981 -0.000515637)
(0.0355236 0.128113 -0.000596103)
(0.0372628 0.130301 -0.000596433)
(0.0372014 0.134159 -0.000619543)
(0.273275 0.802429 -0.000371181)
(0.273567 0.803144 -0.000219187)
(0.283522 0.658877 -0.000239257)
(0.283703 0.659264 -0.000195842)
(-0.196082 1.81636 -0.000343829)
(-0.0616455 1.50493 -0.000431346)
(1.3866 0.919495 -0.000403145)
(-0.819146 2.66342 -0.00093262)
(-0.059669 1.45595 -0.000518348)
(-0.185699 1.7186 -0.0006772)
(0.0609823 0.223477 -0.000106567)
(0.0628817 0.230471 -0.000101258)
(0.0327502 0.118693 -5.84828e-05)
(0.0279623 0.0982641 -5.42264e-05)
(0.0323028 0.113554 -4.81914e-05)
(0.0343565 0.124536 -5.66226e-05)
(0.450655 2.66876 -0.0117725)
(0.390493 2.31227 -0.0102604)
(0.00137731 0.00493767 -7.83801e-06)
(-0.00169618 -0.0128646 7.14526e-05)
(-0.0271189 -0.170452 0.00076572)
(-0.0236581 -0.149122 0.000666556)
(-0.00687887 -0.042878 0.000207012)
(-0.00305112 -0.0207126 0.000106479)
(1.36129 0.901552 -0.00482217)
(1.37015 0.907437 -0.00484994)
(1.37603 0.911359 -0.00486046)
(1.37081 0.90788 -0.00485101)
(-0.0212875 -0.126309 0.000587877)
(-0.0154312 -0.0924019 0.000432247)
(0.34842 2.06207 -0.00913856)
(0.377167 2.23309 -0.00991236)
(-0.093775 -0.755389 0.00333809)
(-0.0286325 -0.179782 0.000808485)
(-0.03288 -0.205967 0.000929478)
(-0.00859356 -0.0528072 0.000251824)
(-0.0133686 -0.0804587 0.000377911)
(0.19768 0.857612 -0.00389766)
(0.513054 2.5158 -0.0112487)
(0.186387 0.808733 -0.00365431)
(0.475605 2.33134 -0.0104652)
(0.282354 2.40588 -0.0106036)
(0.290689 2.47729 -0.0109281)
(0.0666515 0.272635 -0.000843138)
(0.0540592 0.200504 -0.0008862)
(0.0568623 0.21094 -0.000934393)
(0.0627351 0.256522 -0.00144718)
(0.099769 0.436877 -0.00189905)
(0.0668105 0.306505 -0.00131817)
(0.095385 0.417539 -0.00180847)
(0.0708523 0.325222 -0.00140522)
(0.0601268 0.223096 -0.000990396)
(0.0577932 0.214406 -0.000950799)
(0.0714256 0.29228 -0.00090862)
(-0.00249591 1.37912 -0.00593545)
(0.0574446 0.861544 -0.00375131)
(0.0587487 0.881211 -0.00383588)
(-0.00243954 1.35228 -0.00581971)
(-0.0646144 1.5902 -0.00679856)
(1.35937 0.900258 -0.00481367)
(-0.0653474 1.60803 -0.00687472)
(-0.00251572 1.38837 -0.0059731)
(0.0602329 0.903624 -0.003931)
(-0.00254834 1.40174 -0.00603017)
(0.0591803 0.887725 -0.00386375)
(-0.0641811 1.57961 -0.00675538)
(1.35661 0.898426 -0.00480365)
(-0.0629845 1.55034 -0.00662954)
(0.316676 2.69948 -0.0118657)
(0.310728 2.64857 -0.0116489)
(0.0437151 0.16199 -0.000706167)
(0.0480142 0.177998 -0.000781196)
(0.0562368 0.229787 -0.00128797)
(0.0528571 0.196029 -0.000865381)
(0.0609239 0.249071 -0.000763941)
(0.0494689 0.183412 -0.00080628)
(0.0839288 0.366991 -0.00157306)
(0.0614131 0.281508 -0.00120285)
(0.0891743 0.39014 -0.00168163)
(0.0566599 0.259488 -0.00109979)
(-0.0580391 1.42923 -0.006113)
(-0.0603094 1.48491 -0.00634864)
(1.33636 0.884982 -0.00472653)
(0.0520035 0.779573 -0.00339898)
(-0.00219719 1.23312 -0.00530936)
(-0.00230671 1.28862 -0.0055455)
(0.0543389 0.814725 -0.00355031)
(-0.00234019 1.30497 -0.00561597)
(0.0568846 0.853078 -0.00371586)
(0.0551379 0.82676 -0.00360113)
(-0.00241375 1.34071 -0.00577174)
(-0.0609902 1.50158 -0.00642021)
(1.34178 0.888574 -0.00474537)
(-0.0624985 1.53849 -0.00658083)
(0.0746224 0.292447 -0.00137369)
(0.0747793 0.292929 -0.00137629)
(0.0549755 0.200887 -0.000963642)
(0.0552325 0.201964 -0.000970819)
(0.0750704 0.294382 -0.00138176)
(0.239074 1.12764 -0.00511692)
(0.40187 1.96773 -0.00890556)
(0.224413 1.0126 -0.00461903)
(0.173682 0.751774 -0.00346306)
(0.174683 0.756268 -0.00347983)
(0.231392 1.04465 -0.00475996)
(0.409721 2.00652 -0.00904828)
(0.250391 1.1815 -0.00535202)
(0.0760713 0.297754 -0.00139362)
(0.0757023 0.296358 -0.0013888)
(0.0747702 0.292847 -0.00137558)
(0.0550124 0.200976 -0.000963183)
(0.0564358 0.206045 -0.000981002)
(0.262329 1.74919 -0.00776633)
(0.418075 2.60975 -0.0116135)
(0.274895 1.62568 -0.00724897)
(0.28145 1.66458 -0.00742003)
(0.448607 2.80078 -0.0124375)
(0.438861 2.73989 -0.0121767)
(0.269034 1.79404 -0.00795067)
(-0.000957031 -0.0079439 6.60142e-05)
(-0.0258693 -0.15284 0.000709457)
(0.0538677 0.263553 -0.00110579)
(0.00684527 0.033741 -0.000113795)
(-0.0283225 -0.167045 0.000775077)
(-0.00861823 -0.0496276 0.000258094)
(-0.0658047 -0.437095 0.0019849)
(-0.0534349 -0.332712 0.0015218)
(-0.0662051 -0.481498 0.00215907)
(-0.0516458 -0.321645 0.00146675)
(-0.0617891 -0.410517 0.00185343)
(0.459855 2.8712 -0.0127412)
(0.469161 2.92946 -0.0129896)
(0.292604 1.95173 -0.00862635)
(0.286621 1.9117 -0.00845478)
(-0.020509 -0.114481 0.000565031)
(-0.0379005 -0.222558 0.00103644)
(0.0471818 0.230305 -0.000951656)
(0.00352607 0.0161693 -3.26814e-05)
(0.0409483 0.199287 -0.000808488)
(-0.0354862 -0.208539 0.000968927)
(-0.0116518 -0.0661354 0.000334709)
(0.0289441 0.104578 -0.000507006)
(0.0293464 0.106119 -0.000515769)
(0.0289404 0.104536 -0.000506136)
(0.0298014 0.107567 -0.000516439)
(0.121797 0.356753 -0.00155398)
(0.147858 0.433302 -0.00192231)
(0.195431 0.4535 -0.00207045)
(0.190161 0.441261 -0.00201293)
(0.162741 0.377583 -0.00171055)
(0.170928 0.396604 -0.00180449)
(0.154874 0.453915 -0.00202066)
(-0.608047 1.97966 -0.0080861)
(1.31977 0.873956 -0.00465695)
(-0.0566245 1.39466 -0.00596278)
(-0.169484 1.57458 -0.00665759)
(-0.5805 1.89015 -0.00778195)
(-0.510385 1.66125 -0.00668972)
(-0.528607 1.72092 -0.00703612)
(-0.146634 1.36302 -0.00576004)
(-0.0507633 1.25109 -0.00534377)
(1.3032 0.862944 -0.00457307)
(-0.563228 1.83405 -0.00749715)
(0.0864477 0.315412 -0.00140274)
(0.0795548 0.290241 -0.00130732)
(0.139311 0.131267 -0.000667119)
(0.397568 -0.165027 0.000453466)
(0.382615 -0.158818 0.000435012)
(0.153002 0.144179 -0.000726686)
(0.0533713 0.18676 -0.000820723)
(0.049835 0.179787 -0.000797445)
(0.0453199 0.163473 -0.000735329)
(0.0399948 0.139862 -0.000633819)
(0.1836 0.173029 -0.000864792)
(0.415124 -0.172305 0.000464358)
(0.433113 -0.179735 0.000476809)
(0.168595 0.158885 -0.000794982)
(0.615013 3.01696 -0.00614783)
(0.206694 0.896668 -0.00182117)
(0.234973 1.01929 -0.00238844)
(0.606788 2.97588 -0.00697553)
(0.206663 0.896604 -0.0031494)
(0.634251 3.11038 -0.0104972)
(0.185527 0.804953 -0.00272492)
(0.60538 2.96897 -0.010411)
(0.211097 0.916007 -0.00381056)
(0.606658 2.97458 -0.0121513)
(0.207253 0.898961 -0.00370018)
(0.624393 3.06207 -0.0126112)
(-0.0678218 -0.548409 0.000990938)
(-0.0346879 -0.254189 0.000488638)
(-0.0462625 -0.337581 0.00146765)
(-0.0600441 -0.437044 0.00194774)
(-0.0981932 -0.790658 0.00350579)
(-0.0531215 -0.522627 0.00157931)
(-0.00538893 -0.162943 0.000524229)
(-0.0053285 -0.161192 0.000478503)
(-2.99946e-05 -0.0208952 6.94324e-05)
(8.62672e-05 -0.0123468 3.42688e-05)
(-0.00271168 -0.0200015 4.24098e-05)
(-0.0683518 -0.552565 0.00127141)
(-0.00304479 -0.0220563 5.31592e-05)