/*--------------------------------*- C++ -*----------------------------------*\
| =========                 |                                                 |
| \\      /  F ield         | OpenFOAM: The Open Source CFD Toolbox           |
|  \\    /   O peration     | Version:  2306                                  |
|   \\  /    A nd           | Website:  www.openfoam.com                      |
|    \\/     M anipulation  |                                                 |
\*---------------------------------------------------------------------------*/
FoamFile
{
    version     2.0;
    format      ascii;
    arch        "LSB;label=32;scalar=64";
    class       volScalarField;
    location    "0.3";
    object      p;
}
// * * * * * * * * * * * * * * * * * * * * * * * * * * * * * * * * * * * * * //

dimensions      [0 2 -2 0 0 0 0];

internalField   nonuniform List<scalar> 
111542
(
61.8164
63.1281
66.2675
71.398
78.5807
88.007
99.8167
114.023
130.123
146.695
161.201
169.667
168.093
155.338
134.502
111.33
89.8106
71.4231
56.2547
44.0897
34.4961
27.1369
21.6273
17.4619
14.3046
11.8814
9.9191
8.39094
7.25038
6.37236
5.67597
5.10665
4.6775
4.31811
3.97624
3.60898
3.16179
2.62838
1.90611
0.900479
60.6334
61.9021
65.0051
70.0695
77.2372
86.8044
99.1224
114.425
132.536
152.382
171.285
183.748
182.219
165.456
139.302
112.418
88.9731
69.61
54.0362
41.8107
32.4233
25.3507
20.0822
16.2343
13.3549
11.115
9.35104
7.985
6.93241
6.10386
5.43871
4.89948
4.46293
4.08941
3.73872
3.37219
2.94501
2.41069
1.69678
0.74306
58.2949
59.4926
62.4466
67.3199
74.3647
84.0703
97.1276
114.327
136.317
162.936
190.857
211.522
210.873
184.938
148.484
115.277
88.1858
66.8521
50.462
38.0842
28.8877
22.4037
17.8113
14.4702
11.7305
9.48686
7.78897
6.55101
5.63414
4.93889
4.40738
3.99981
3.682
3.42116
3.18164
2.92633
2.60926
2.1724
1.53881
0.624871
54.8697
55.9365
58.5891
63.0379
69.6489
79.1294
92.6087
111.766
138.993
177.517
212.114
253.92
258.707
217.181
164.682
124.371
91.7866
67.1661
49.2253
36.18
22.7176
16.4993
14.2562
13.0081
11.1008
9.082
7.46308
6.23862
5.2766
4.50495
3.89269
3.41223
3.03469
2.72976
2.46773
2.21562
1.92622
1.53432
0.939399
0.00715174
50.4909
51.346
53.4934
57.1626
62.7769
71.1652
83.7569
102.96
132.786
177.21
253.428
338.544
360.867
251.763
166.87
119.299
81.0133
55.3012
38.4023
27.4727
20.2965
5.13348
4.69466
5.5446
5.05804
4.32405
3.79286
3.38783
3.0334
2.72743
2.47853
2.2819
2.12828
2.00365
1.89588
1.78712
1.64473
1.41212
0.965217
-0.0023882
45.3817
45.9371
47.3535
49.8235
53.7132
59.7486
69.2535
84.678
110.783
165.215
258.337
451.784
613.855
237.625
163.153
110.194
64.9721
39.8264
24.9733
15.9239
14.1
12.4405
12.0612
7.65303
4.56936
3.10457
2.31913
1.73973
1.28436
0.954284
0.730684
0.58503
0.495699
0.447758
0.429644
0.429595
0.434284
0.434129
0.447269
0.651028
39.8644
40.0464
40.5452
41.455
42.9532
45.379
49.3233
55.7845
66.4837
105.841
181.394
410.709
1940.9
-436.366
189.382
73.8636
29.1902
15.1908
7.33608
-2.06218
-9.04686
16.1395
15.5332
9.73427
6.09657
4.56939
3.81345
3.24573
2.78643
2.44162
2.18982
2.00124
1.85786
1.74813
1.66525
1.60386
1.55141
1.50351
1.46354
1.48298
34.3532
34.1281
33.6275
32.8178
31.6326
29.909
27.2607
22.7675
14.0818
16.5451
-0.056789
-160.753
-996.57
-1030.69
-314.78
-103.319
-47.4601
-26.4778
-16.9668
-10.4795
-3.19684
-7.43777
-5.63347
-4.12093
-3.35946
-2.5422
-1.72216
-1.06774
-0.573325
-0.178178
0.15353
0.436248
0.679083
0.887951
1.06591
1.21072
1.30641
1.32083
1.18481
0.760152
29.2542
28.6794
27.2391
24.8157
21.1557
15.7184
7.5066
-5.34341
-26.4213
-49.3571
-122.453
-266.179
-474.983
-503.991
-320.534
-175.904
-100.948
-61.3595
-39.1524
-25.0497
-14.9114
-8.01976
-4.01157
-1.23555
0.397464
1.39306
2.08837
2.56914
2.87546
3.05982
3.16532
3.21767
3.23096
3.21205
3.16073
3.06984
2.91489
2.64557
2.16297
1.26715
25.0456
24.1531
21.9427
18.2278
12.6479
4.49471
-7.40612
-24.9958
-51.5247
-92.5655
-150.038
-222.43
-287.514
-295.745
-238.485
-165.411
-109.912
-74.2204
-51.0861
-35.0663
-23.7063
-16.1313
-11.1559
-7.66748
-5.21694
-3.48481
-2.19536
-1.20289
-0.437207
0.156012
0.623307
0.997378
1.29695
1.53048
1.69588
1.78483
1.7719
1.6116
1.2397
0.603942
22.0347
20.922
18.1836
13.5988
6.77115
-3.00103
-16.7934
-36.0689
-62.6675
-98.4364
-143.352
-192.26
-230.558
-237.533
-207.06
-158.123
-113.537
-80.9667
-58.1269
-41.5205
-29.1969
-20.1942
-13.6446
-8.87665
-5.4137
-2.90796
-1.08196
0.258659
1.23953
1.94995
2.45894
2.81727
3.05845
3.20063
3.24189
3.19157
3.02442
2.69163
2.11823
1.17189
20.4665
19.2549
16.2332
11.2368
3.79435
-6.69975
-21.2348
-40.9258
-66.9065
-99.522
-137.288
-174.85
-202.32
-208.179
-188.278
-152.123
-114.485
-83.9303
-61.2617
-44.3883
-31.671
-22.1927
-15.2693
-10.2644
-6.69252
-4.12731
-2.26824
-0.907768
0.095124
0.837302
1.3883
1.79718
2.09715
2.3105
2.38144
2.38334
2.27218
1.99505
1.49958
0.732321
61.3474
62.608
65.685
70.6698
77.6357
86.7633
98.2201
111.972
127.515
143.517
157.522
165.642
163.92
151.403
131.068
108.448
87.4879
69.5812
54.832
42.9952
33.7018
26.5525
21.1474
17.0865
13.9948
11.5755
9.65014
8.14785
7.00022
6.11826
5.4314
4.89212
4.47031
4.12126
3.80135
3.469
3.0786
2.58122
1.89703
0.927639
60.172
61.4024
64.4218
69.3402
76.2924
85.5629
97.493
112.3
129.816
149.027
167.332
179.514
177.686
161.235
135.721
109.516
86.6678
67.8111
52.6706
40.8028
31.7032
24.8184
19.666
15.8982
13.0657
10.8418
9.08585
7.72193
6.66709
5.84128
5.18741
4.66708
4.24968
3.89941
3.57982
3.25234
2.87322
2.38725
1.72199
0.79884
57.8534
59.0135
61.8802
66.6072
73.4337
82.8302
95.4658
112.109
133.406
159.225
186.336
206.321
205.858
180.511
144.914
112.496
86.0174
65.1913
49.239
37.2414
28.3888
22.0896
17.5661
14.2308
11.4829
9.23128
7.52742
6.28804
5.37536
4.69038
4.17549
3.78972
3.49756
3.26538
3.05999
2.84504
2.57676
2.19411
1.61097
0.710907
54.4596
55.4894
58.0573
62.364
68.7595
77.9276
90.966
109.519
135.947
173.476
208.55
249.676
254.417
213.363
161.926
122.288
90.1263
65.8615
48.2351
35.4836
22.3082
16.4934
14.2815
12.8902
10.8357
8.72734
7.07214
5.84579
4.90253
4.16317
3.59186
3.15616
2.82507
2.56713
2.35398
2.15453
1.92635
1.6027
1.07136
0.143122
50.1239
50.9442
53.0154
56.5565
61.9745
70.0739
82.2508
100.872
129.915
174.361
249.652
333.907
355.906
247.785
164.97
118.111
79.9133
54.3027
37.5511
26.7899
20.06
5.87408
5.19608
5.71235
4.96324
4.05879
3.44237
3.00825
2.65623
2.37025
2.15014
1.98449
1.86152
1.76672
1.68875
1.61555
1.5226
1.35565
0.98014
0.0254685
45.0689
45.5938
46.9484
49.3161
53.0501
58.8579
68.0405
83.0227
108.554
162.939
255.862
448.384
609.704
234.527
163.151
110.844
64.8973
39.269
24.2533
15.1943
15.354
14.4704
13.0263
8.00015
4.65437
3.05806
2.21008
1.6126
1.16192
0.844373
0.633728
0.498598
0.418911
0.380801
0.376832
0.402313
0.453675
0.529588
0.63841
0.847816
39.6074
39.7727
40.2299
41.0721
42.4731
44.7668
48.5416
54.8112
65.358
104.742
180.558
412.027
1931.22
192.422
81.0952
30.5847
14.5136
6.2878
-3.28618
-13.0036
13.5515
13.619
8.24937
5.03763
3.81752
3.22271
2.72249
2.2788
1.91854
1.6342
1.40772
1.23095
1.09819
1.00848
0.961868
0.957198
0.998101
1.09766
1.31317
34.1507
33.9265
33.4069
32.5693
31.3539
29.6067
26.9626
22.5543
14.1464
16.7968
1.00521
-155.773
-974.388
-1028.15
-310.395
-101.067
-46.1291
-25.9342
-16.8938
-10.6548
-4.1452
-8.35384
-6.51247
-4.90937
-3.93515
-2.93686
-2.01992
-1.31875
-0.79951
-0.392702
-0.0585028
0.222097
0.462645
0.671614
0.856761
1.02133
1.15766
1.23972
1.19884
0.862002
29.1251
28.5419
27.102
24.6908
21.0625
15.6976
7.63547
-4.92344
-25.465
-48.2148
-119.84
-261.483
-468.106
-495.286
-315.296
-172.45
-98.7417
-60.1491
-38.6093
-24.9034
-14.9726
-8.61338
-4.73661
-1.92065
-0.171215
0.920151
1.66614
2.16762
2.47826
2.65616
2.74833
2.78471
2.7833
2.75446
2.70215
2.62373
2.49993
2.28524
1.88543
1.10903
24.959
24.0686
21.8806
18.2071
12.7014
4.69148
-6.96609
-24.1474
-50.0118
-90.0183
-146.077
-216.806
-280.724
-288.498
-232.241
-160.867
-106.963
-72.481
-50.1717
-34.7029
-23.7202
-16.4044
-11.55
-8.08413
-5.62133
-3.86689
-2.55327
-1.53952
-0.757947
-0.154815
0.31748
0.693133
0.992907
1.22731
1.39809
1.49945
1.50987
1.38743
1.07175
0.513141
21.9834
20.8823
18.1734
13.646
6.9269
-2.66712
-16.173
-35.0052
-60.9425
-95.7888
-139.53
-187.156
-224.471
-231.31
-201.479
-153.843
-110.573
-79.0708
-57.0024
-40.9395
-28.9996
-20.2612
-13.8685
-9.18987
-5.77297
-3.28588
-1.46334
-0.120831
0.86154
1.57113
2.07706
2.43076
2.66678
2.80546
2.85345
2.81204
2.66178
2.36038
1.84083
0.992912
20.4353
19.2288
16.2551
11.3046
4.00022
-6.30654
-20.541
-39.7912
-65.1077
-96.8966
-133.669
-170.217
-196.943
-202.699
-183.346
-148.075
-111.501
-81.9303
-60.0091
-43.6823
-31.3506
-22.1419
-15.3974
-10.5174
-6.99914
-4.45681
-2.60694
-1.24792
-0.243093
0.501485
1.05384
1.46231
1.75871
1.95944
2.06125
2.07282
1.97228
1.71932
1.26965
0.594408
60.4229
61.6087
64.5177
69.2159
75.7653
84.327
95.0502
107.879
122.332
137.17
150.07
157.415
155.529
143.498
124.132
102.652
82.7805
65.8218
51.8776
40.6973
31.916
25.1149
19.9213
16.0156
13.0574
10.755
8.9407
7.52735
6.44202
5.60875
4.96277
4.45667
4.05381
3.7198
3.41937
3.11502
2.7652
2.31886
1.70915
0.849419
59.267
60.423
63.2695
67.8989
74.4277
83.1129
94.2634
108.07
124.369
142.219
159.207
170.337
168.477
152.764
128.527
103.673
82.0005
64.1348
49.8265
38.6321
30.0375
23.4256
18.4257
14.8138
12.1459
10.0597
8.40541
7.11075
6.1017
5.30807
4.67763
4.17354
3.76538
3.42356
3.11821
2.81613
2.47816
2.05277
1.47459
0.676025
56.9885
58.074
60.7669
65.2039
71.5984
80.3816
92.1717
107.686
127.544
151.661
177.045
195.89
195.215
171.104
137.383
106.615
81.4144
61.6357
46.5568
35.2764
27.0098
20.827
16.2589
13.0259
10.4905
8.44267
6.88728
5.74804
4.90178
4.25921
3.76866
3.39365
3.10281
2.86962
2.66841
2.4716
2.24287
1.92789
1.4416
0.65536
53.6575
54.6147
57.0151
61.0403
67.0087
75.5536
87.7013
105.006
129.734
165.038
199.669
239.113
243.661
204.162
155.054
117.079
86.0124
62.6581
45.7921
33.6544
20.6956
14.9446
12.7916
11.4933
9.53929
7.51449
5.9129
4.71438
3.78336
3.04882
2.47729
2.03879
1.70537
1.45188
1.2581
1.10273
0.954943
0.759408
0.413889
-0.251989
49.4084
50.161
52.0816
55.3689
60.3964
67.9152
79.2429
96.6366
123.945
167.325
239.946
321.699
343.402
238.413
159.624
114.329
76.6559
51.5486
35.2398
24.7131
17.6031
1.9126
2.68119
4.24914
3.91144
3.1556
2.60174
2.1789
1.80122
1.46854
1.1919
0.96952
0.798094
0.670946
0.587561
0.546857
0.543031
0.542218
0.426946
-0.200472
44.4659
44.9287
46.1616
48.3264
51.7488
57.0949
65.6057
79.6191
103.791
157.031
248.326
437.867
596.598
225.017
160.005
109.947
63.1134
37.2119
22.2933
13.0638
8.28712
5.42749
5.79383
2.36395
-0.253639
-1.47673
-2.05448
-2.438
-2.72615
-2.92461
-3.0464
-3.11179
-3.11883
-3.07292
-2.96899
-2.79659
-2.53362
-2.14168
-1.54023
-0.498076
39.1098
39.2458
39.6226
40.3321
41.5382
43.5595
46.9663
52.779
62.8514
101.684
177.22
409.096
1915.59
178.714
84.389
31.3985
14.23
5.71186
-3.73556
-8.61392
14.2758
12.7672
6.4399
2.76879
1.25039
0.460311
-0.131558
-0.590486
-0.921934
-1.15183
-1.30679
-1.40074
-1.43356
-1.40131
-1.29209
-1.08224
-0.734112
-0.177982
0.68455
33.7829
33.5438
32.9881
32.0989
30.8229
29.0202
26.3657
22.0871
14.1658
17.1878
3.10211
-148.052
-961.805
-1009.14
-297.545
-94.6002
-43.3288
-25.1718
-17.1419
-11.2208
-3.53563
-7.98161
-7.39671
-6.57084
-5.72453
-4.68543
-3.71716
-2.95431
-2.3655
-1.89377
-1.50197
-1.16888
-0.878608
-0.617356
-0.364648
-0.106808
0.167832
0.453781
0.702204
0.723619
28.8778
28.2934
26.86
24.4746
20.91
15.6847
7.911
-4.07841
-23.5393
-45.391
-113.669
-250.284
-451.508
-477.591
-301.506
-163.698
-93.7314
-57.5882
-37.5209
-24.6368
-15.0587
-9.28584
-5.69175
-3.0364
-1.35697
-0.315456
0.394138
0.8815
1.19889
1.39778
1.52234
1.60042
1.6495
1.67969
1.70166
1.71803
1.71969
1.67278
1.48989
0.963408
24.809
23.9305
21.7865
18.1993
12.8515
5.11834
-6.05875
-22.4267
-46.9464
-84.7829
-137.831
-205.016
-266.149
-273.574
-219.774
-152.027
-101.337
-69.1569
-48.3626
-33.9024
-23.6272
-16.8314
-12.0396
-8.60934
-6.24549
-4.58078
-3.3139
-2.31332
-1.52577
-0.906017
-0.409814
-0.00526871
0.328579
0.600699
0.81908
0.981377
1.07237
1.05661
0.873721
0.449631
21.9066
20.8258
18.1827
13.7804
7.27739
-1.96106
-14.8943
-32.8355
-57.4393
-90.4007
-131.74
-176.809
-212.227
-218.779
-190.495
-145.449
-104.766
-75.2914
-54.661
-39.6126
-28.3984
-20.1543
-14.0052
-9.48703
-6.21318
-3.83771
-2.08682
-0.78487
0.177481
0.881365
1.39264
1.7606
2.01908
2.18811
2.27876
2.29063
2.20861
1.99683
1.59167
0.877287
20.386
19.2134
16.3178
11.5068
4.44649
-5.47235
-19.0996
-37.4428
-61.4639
-91.5441
-126.28
-160.795
-186.066
-191.572
-173.34
-140.087
-105.695
-77.9785
-57.4444
-42.1253
-30.5238
-21.8257
-15.4024
-10.7137
-7.3175
-4.86403
-3.07715
-1.75682
-0.771641
-0.0330572
0.522969
0.94263
1.25666
1.48156
1.62334
1.67852
1.63166
1.45071
1.09314
0.518644
59.0925
60.1735
62.833
67.12
73.0735
80.8198
90.471
101.948
114.792
127.874
139.092
145.223
143.093
131.804
113.929
94.2024
75.9712
60.4234
47.6609
37.4427
29.4111
23.1411
18.2694
14.5403
11.7039
9.51119
7.79357
6.45407
5.41972
4.62212
4.00402
3.52291
3.14566
2.84273
2.58411
2.33798
2.06826
1.73022
1.26854
0.622096
57.9652
59.0154
61.6108
65.8242
71.7435
79.5807
89.5906
101.917
116.388
132.145
147.048
156.456
154.489
139.948
117.739
95.003
75.1464
58.7879
45.7277
35.5428
27.7281
21.5739
16.7921
13.2947
10.7313
8.74525
7.16877
5.92818
4.9601
4.2025
3.60731
3.13991
2.77227
2.4779
2.23128
2.00487
1.7654
1.46847
1.05719
0.476293
55.7454
56.7249
59.1674
63.1858
68.9551
76.8435
87.3835
101.196
118.819
140.181
162.621
179.365
178.249
156.192
125.591
97.5126
74.3822
56.2826
42.5839
32.456
25.2301
19.3114
14.5306
11.2476
8.90538
7.08327
5.67297
4.60591
3.79331
3.16763
2.68863
2.32788
2.06107
1.86525
1.72155
1.60843
1.49781
1.34259
1.06042
0.503072
52.5057
53.3605
55.5198
59.1376
64.4838
72.1091
82.9155
98.2818
120.248
151.713
184.759
220.847
224.811
188.273
143.399
108.214
79.077
57.3816
41.8766
30.8805
19.1874
13.8861
10.7937
8.94788
7.09396
5.35292
3.97614
2.93248
2.12071
1.48544
0.997327
0.635511
0.376596
0.199469
0.0953015
0.0535163
0.0600865
0.0779484
0.0143363
-0.361375
48.3813
49.0419
50.7456
53.6631
58.1162
64.7654
74.7838
90.1968
114.523
155.326
222.37
298.956
319.553
221.507
150.63
106.957
70.27
46.4543
31.2878
21.7139
16.0311
-0.355096
0.702003
2.42053
2.20384
1.45218
0.803432
0.250104
-0.246467
-0.663676
-0.986889
-1.20911
-1.34669
-1.40801
-1.38891
-1.28214
-1.07315
-0.760999
-0.428079
-0.512908
43.5928
43.9819
45.0403
46.9077
49.8664
54.5082
61.9455
74.3096
95.9303
146.22
233.344
415.966
569.745
211.4
163.971
106.038
58.422
32.9242
18.7194
10.1505
7.3786
-4.51983
-1.2429
-1.66688
-2.85378
-3.52045
-3.87251
-4.15774
-4.40637
-4.5959
-4.72061
-4.79488
-4.80948
-4.76407
-4.64061
-4.4067
-4.00167
-3.3119
-2.13124
-0.109411
38.4198
38.5002
38.7601
39.276
40.1889
41.7808
44.5683
49.5155
58.4465
95.4496
169.093
400.611
1885.35
220.77
82.4931
28.5229
11.1201
2.7951
-5.97465
-12.1654
13.1319
10.4311
3.8504
0.177523
-1.47773
-2.42737
-3.13688
-3.68598
-4.0968
-4.39697
-4.60183
-4.73106
-4.7857
-4.73694
-4.55477
-4.17662
-3.48757
-2.27114
-0.121856
33.2712
33.0115
32.4055
31.4401
30.0674
28.1588
25.4336
21.2335
13.8377
17.0747
5.33517
-134.44
-916.968
-972.28
-272.49
-85.6651
-40.8773
-25.591
-18.7438
-13.1925
-5.77028
-8.47435
-7.98507
-7.21542
-6.37279
-5.42174
-4.55196
-3.8596
-3.32511
-2.90535
-2.56696
-2.2751
-2.03359
-1.81566
-1.58279
-1.30515
-0.9436
-0.456203
0.161461
0.693042
28.5437
27.9578
26.5376
24.1891
20.7104
15.6725
8.28981
-2.90712
-20.8017
-41.0467
-103.776
-230.691
-420.235
-444.514
-277.208
-149.938
-86.6444
-54.3046
-36.3564
-24.747
-16.2118
-11.5603
-7.23261
-4.03124
-2.30094
-1.38273
-0.788164
-0.383051
-0.128831
0.0183527
0.101409
0.149771
0.177585
0.201795
0.24149
0.30922
0.411657
0.539962
0.631567
0.499562
24.6164
23.76
21.6793
18.2184
13.0973
5.75966
-4.73215
-19.9261
-42.4555
-76.9385
-125.168
-186.4
-242.408
-249.333
-200.333
-138.902
-93.2943
-64.4557
-45.7947
-32.7968
-23.6322
-17.7075
-12.6555
-8.96205
-6.61204
-5.04956
-3.8628
-2.91408
-2.16348
-1.57195
-1.09761
-0.709062
-0.38756
-0.120098
0.10706
0.297326
0.445273
0.528798
0.496175
0.267467
21.8109
20.7708
18.2263
14.0073
7.81654
-0.909643
-13.0198
-29.6685
-52.3106
-82.4414
-120.078
-161.078
-193.37
-199.448
-173.825
-133.079
-96.4152
-69.8892
-51.2794
-37.6622
-27.5043
-20.0033
-14.1702
-9.77631
-6.61011
-4.34161
-2.67818
-1.44252
-0.531193
0.132554
0.612407
0.956929
1.19971
1.36262
1.46076
1.49724
1.46246
1.33015
1.04966
0.53993
20.3502
19.2176
16.4375
11.8387
5.13055
-4.22741
-16.9855
-34.0193
-56.1579
-83.7062
-115.373
-146.768
-169.765
-174.86
-158.431
-128.424
-97.3847
-72.3522
-53.7651
-39.8557
-29.2895
-21.3259
-15.3502
-10.8781
-7.59362
-5.22268
-3.50309
-2.23338
-1.28461
-0.57284
-0.0372992
0.366868
0.670062
0.890753
1.03815
1.11131
1.09836
0.975424
0.709931
0.283706
57.4377
58.3901
60.74
64.5171
69.7317
76.464
84.7739
94.547
105.337
116.14
125.15
129.646
127.116
116.793
100.926
83.5378
67.4639
53.7321
42.4483
33.4062
26.2951
20.7436
16.399
13.0075
10.3883
8.36274
6.787
5.56631
4.62992
3.91167
3.35984
2.93317
2.60261
2.34076
2.12145
1.91971
1.70766
1.44975
1.09987
0.590206
56.3467
57.2674
59.5517
63.249
68.411
75.1898
83.7634
94.2014
106.296
119.265
131.334
138.31
135.968
123.002
103.609
83.8007
66.4237
52.0621
40.591
31.6534
24.827
19.4731
15.2468
12.0095
9.56438
7.66855
6.17539
5.0101
4.11518
3.42356
2.88804
2.47426
2.153
1.89993
1.69618
1.52071
1.34897
1.14833
0.872523
0.453245
54.2011
55.0515
57.1841
60.6824
65.6715
72.4341
81.3792
92.9705
107.583
125.069
143.143
156.421
154.55
135.351
109.172
85.024
64.9549
49.2193
37.3379
28.6565
22.7836
17.8562
13.3368
10.0387
7.774
6.09672
4.81337
3.84097
3.10594
2.55392
2.13772
1.82515
1.59553
1.4288
1.31367
1.23837
1.18979
1.1396
1.02097
0.648853
51.077
51.8073
53.6682
56.7779
61.3425
67.7971
76.8572
89.6117
107.666
133.308
163.079
193.231
195.784
163.79
125.384
94.7227
68.9362
49.9176
36.4415
27.1364
18.4283
15.7014
10.7923
7.1605
4.72685
2.96438
1.68404
0.77607
0.130556
-0.331698
-0.670642
-0.914443
-1.0769
-1.17537
-1.20628
-1.16051
-1.02763
-0.80491
-0.530808
-0.413462
47.1086
47.6595
49.0944
51.5482
55.2732
60.7988
69.0655
81.7025
101.555
137.591
194.211
259.949
276.914
190.287
131.982
92.6943
59.237
38.253
25.2294
17.4343
14.5105
6.6939
4.52915
2.99502
1.45158
0.180518
-0.774866
-1.50572
-2.0557
-2.44786
-2.73087
-2.91827
-3.03083
-3.08574
-3.06628
-2.93434
-2.6417
-2.10996
-1.29562
-0.555669
42.5107
42.8167
43.6587
45.1508
47.5157
51.2268
57.1772
67.1005
84.5525
128.835
206.492
371.807
513.127
177.237
156.825
93.2281
46.0671
22.7604
10.6796
3.82268
-3.2212
-28.6002
-26.3162
-24.9032
-24.1249
-23.1083
-22.0602
-21.165
-20.4244
-19.7911
-19.2174
-18.6992
-18.2043
-17.691
-17.1249
-16.4445
-15.5268
-14.1151
-11.6315
-6.59342
37.574
37.5868
37.7015
37.972
38.5037
39.5112
41.4025
44.957
51.7006
84.3382
151.428
371.277
1817.96
262.704
70.8993
15.0228
-0.634131
-7.23356
-13.497
-21.2425
-2.05556
-4.55506
-9.27171
-11.6309
-12.5374
-12.9675
-13.2393
-13.4007
-13.4552
-13.4143
-13.3134
-13.1285
-12.8676
-12.5119
-12.0013
-11.2201
-9.92374
-7.63545
-3.56326
32.6519
32.3645
31.6968
30.6347
29.1286
27.0566
24.1688
19.9073
12.871
15.6435
6.00678
-118.086
-837.17
-868.447
-236.206
-78.3879
-42.6142
-29.9986
-23.779
-18.2776
-11.9048
-20.7475
-16.9705
-13.2118
-11.0392
-9.57154
-8.47318
-7.6755
-7.10575
-6.68884
-6.3689
-6.09986
-5.86773
-5.6392
-5.37244
-5.01543
-4.49334
-3.68432
-2.43934
-0.749972
28.1432
27.5605
26.1562
23.8514
20.471
15.6477
8.71695
-1.54275
-17.4997
-35.4738
-89.9809
-200.442
-366.719
-386.465
-240.292
-131.733
-78.3417
-50.877
-35.4251
-25.5566
-19.5234
-18.2429
-12.1706
-7.24976
-4.77017
-3.5197
-2.72241
-2.17546
-1.81782
-1.58925
-1.43581
-1.32369
-1.23371
-1.13975
-1.02129
-0.855003
-0.612655
-0.267215
0.16275
0.455574
24.3966
23.5684
21.5679
18.2626
13.4187
6.56521
-3.08372
-16.8122
-36.791
-66.8038
-108.236
-160.478
-208.064
-214.294
-173.365
-121.766
-83.227
-58.6077
-42.5141
-31.3101
-23.6555
-19.153
-14.1645
-10.1527
-7.56252
-5.84107
-4.54215
-3.51745
-2.71991
-2.10239
-1.61672
-1.22505
-0.90628
-0.636287
-0.399093
-0.182461
0.0198766
0.201153
0.319162
0.250824
21.7185
20.7258
18.3061
14.3161
8.51214
0.420969
-10.6649
-25.6929
-45.8348
-72.2634
-104.885
-140.102
-167.813
-173.178
-151.617
-117.176
-85.9571
-63.1208
-46.9288
-35.0155
-26.1562
-19.6781
-14.4965
-10.3632
-7.26714
-5.00891
-3.33763
-2.08566
-1.15277
-0.4644
0.0420032
0.414634
0.687316
0.884858
1.02348
1.1104
1.14222
1.09936
0.933949
0.536477
20.3257
19.2482
16.6127
12.2776
6.00544
-2.65542
-14.3268
-29.7189
-49.4745
-73.7659
-101.402
-128.591
-148.441
-152.928
-139.011
-113.52
-86.9405
-65.2927
-49.0648
-36.8391
-27.5222
-20.4915
-15.1632
-11.0455
-7.91824
-5.60702
-3.90229
-2.6253
-1.65821
-0.923819
-0.365297
0.0607744
0.385252
0.628667
0.802304
0.90903
0.940971
0.877963
0.686323
0.317264
55.5648
56.3756
58.3791
61.5848
65.9725
71.5708
78.3785
86.2352
94.699
102.884
109.311
111.94
108.886
99.6877
86.2212
71.6221
58.1064
46.4929
36.8734
29.0823
22.8656
17.9603
14.1356
11.1744
8.88046
7.08559
5.67228
4.56618
3.71189
3.04623
2.53036
2.12139
1.80585
1.55835
1.35603
1.17764
1.00446
0.811125
0.574433
0.282426
54.5153
55.2943
57.231
60.3502
64.6647
70.2573
77.2154
85.5124
94.8702
104.531
112.928
117.3
114.326
103.224
87.3033
71.1055
56.7678
44.7705
35.0602
27.3434
21.2437
16.4943
12.8169
10.0138
7.8645
6.17069
4.81717
3.74303
2.9355
2.29268
1.78538
1.39773
1.0947
0.853906
0.669133
0.526154
0.401531
0.278713
0.142181
0.0119472
52.4547
53.1656
54.9524
57.868
61.9825
67.4781
74.6129
83.6461
94.7084
107.468
120.114
128.379
125.449
109.754
89.1144
70.1424
54.1837
41.3921
31.5108
23.961
17.9982
13.7539
10.2937
7.65887
5.69843
4.18932
3.03475
2.14487
1.43314
0.908062
0.517905
0.229629
0.0241151
-0.108982
-0.187687
-0.213105
-0.191054
-0.125063
-0.0342008
0.0405206
49.462
50.0607
51.5889
54.1292
57.8142
62.9412
69.9911
79.6615
92.9006
110.836
135.134
156.12
156.283
130.884
100.964
76.797
56.1877
40.8131
29.736
21.8115
11.2658
8.60324
5.7246
3.21083
1.25723
-0.307058
-1.54042
-2.45109
-3.10542
-3.54733
-3.85093
-4.05102
-4.16298
-4.20456
-4.17043
-4.04068
-3.79603
-3.38994
-2.74964
-1.70985
45.6763
46.1075
47.2437
49.1773
52.0787
56.3159
62.526
71.7845
85.8874
114.495
154.358
199.897
207.991
140.528
99.227
69.7792
43.7607
27.3612
17.1073
10.9816
9.54591
-2.04391
-3.52648
-4.76494
-6.07969
-6.98771
-7.75275
-8.44152
-8.93351
-9.16308
-9.26198
-9.292
-9.24033
-9.11275
-8.93206
-8.62709
-8.12809
-7.29545
-5.90667
-3.66615
41.3034
41.5137
42.1153
43.1854
44.8744
47.5018
51.6647
58.494
70.2244
104.262
163.058
286.943
390.619
105.771
114.994
56.9436
19.3789
1.63201
-7.23645
-11.66
-9.264
-22.4969
-24.9667
-29.6474
-31.3664
-31.5199
-31.0206
-30.2378
-29.3902
-28.6168
-27.8559
-27.0734
-26.3109
-25.5535
-24.7228
-23.7535
-22.4995
-20.6147
-17.292
-10.5367
36.6235
36.5718
36.527
36.5207
36.613
36.9303
37.7116
39.4063
42.8705
67.3683
118.407
299.232
1635.54
254.22
-18.1487
-60.2277
-67.6272
-68.2104
-66.3102
-61.9825
-36.0849
-34.9055
-36.7198
-36.768
-35.7688
-34.5764
-33.4451
-32.408
-31.4491
-30.5288
-29.6551
-28.7946
-27.8989
-26.9716
-25.9115
-24.5566
-22.5264
-18.9357
-11.4702
31.9742
31.6475
30.9124
29.7423
28.081
25.8054
22.6757
18.2044
11.286
12.4711
3.97153
-91.6348
-661.751
-656.751
-193.74
-80.8648
-53.6171
-42.3161
-35.958
-30.2481
-27.0594
-30.2439
-26.3344
-22.3465
-19.9224
-18.1994
-16.8809
-15.8718
-15.0828
-14.4464
-13.9109
-13.4419
-13.0264
-12.5861
-12.1075
-11.5347
-10.7636
-9.60173
-7.6858
-4.26776
27.7071
27.1286
25.7453
23.4899
20.2178
15.6244
9.17491
-0.0621415
-13.7432
-29.0278
-72.4806
-156.564
-280.894
-297.197
-190.657
-109.889
-68.697
-46.5174
-33.582
-25.3617
-22.6963
-18.1121
-14.6502
-11.6166
-9.70023
-8.4281
-7.45902
-6.68929
-6.0809
-5.60115
-5.21671
-4.89916
-4.63271
-4.38396
-4.12754
-3.83214
-3.45115
-2.91885
-2.14755
-1.03663
24.1713
23.3834
21.4665
18.3352
13.8016
7.48696
-1.22294
-13.299
-30.3247
-55.007
-88.0283
-128.253
-163.862
-169.469
-139.758
-100.952
-70.8495
-50.8565
-37.3595
-27.7515
-21.0401
-17.3265
-13.956
-11.0699
-8.89224
-7.26726
-5.99783
-4.98337
-4.17395
-3.52726
-3.00508
-2.57526
-2.218
-1.90811
-1.62808
-1.36231
-1.09888
-0.828951
-0.554979
-0.28976
21.6399
20.6988
18.4246
14.6943
9.32614
1.94842
-7.98645
-21.1843
-38.4651
-60.5652
-87.1707
-115.233
-137.104
-141.448
-125.147
-98.6303
-73.8385
-55.1155
-41.4889
-31.2831
-23.5861
-17.9744
-13.6878
-10.3045
-7.70429
-5.74627
-4.26306
-3.12746
-2.25477
-1.58462
-1.06901
-0.671285
-0.364259
-0.126915
0.0552128
0.189864
0.27596
0.302077
0.244711
0.0790432
20.3252
19.312
16.8422
12.806
7.02625
-0.849012
-11.2971
-24.837
-41.8861
-62.4357
-85.3724
-107.568
-123.59
-127.273
-116.454
-96.274
-74.8848
-57.0342
-43.3438
-32.8613
-24.7789
-18.6445
-14.0346
-10.517
-7.83077
-5.79877
-4.26279
-3.09097
-2.18937
-1.49316
-0.954657
-0.536678
-0.21233
0.0363701
0.220151
0.34281
0.3978
0.36909
0.238059
0.0118493
53.6009
54.2657
55.9135
58.5319
62.0729
66.5161
71.8027
77.7322
83.8742
89.4701
93.3741
94.1607
90.6201
82.6163
71.613
59.8561
48.9444
39.479
31.5343
25.0027
19.7118
15.4923
12.2037
9.70976
7.79751
6.28727
5.08585
4.14302
3.41409
2.85109
2.41708
2.08133
1.82169
1.6163
1.44629
1.29349
1.1372
0.953325
0.713535
0.387112
52.5967
53.2297
54.8107
57.3372
60.7854
65.1725
70.498
76.6454
83.2772
89.6865
94.6181
96.1723
92.4444
83.2151
70.8812
58.4176
47.2583
37.7315
29.8458
23.4381
18.2606
14.1249
10.9511
8.65662
6.93811
5.58172
4.50199
3.65125
2.98865
2.46651
2.05495
1.73199
1.47718
1.2737
1.10966
0.972935
0.846371
0.709606
0.534978
0.287777
50.6285
51.1948
52.6302
54.9505
58.1743
62.3862
67.6959
74.1625
81.6768
89.7403
96.9893
100.447
95.9724
83.3625
68.1902
54.576
42.98
33.2687
25.4074
19.1133
13.9979
10.0161
7.60235
5.93541
4.51444
3.3458
2.47062
1.83716
1.37644
1.04786
0.8147
0.65197
0.544156
0.478797
0.446899
0.446281
0.472665
0.513249
0.531091
0.413446
47.7789
48.2385
49.4305
51.3925
54.1852
57.971
62.9971
69.5744
78.021
88.5035
99.3275
106.916
100.744
81.1055
62.543
48.4183
36.6002
27.2027
19.9423
13.9551
7.80159
1.66149
1.89107
2.39451
1.85639
1.01137
0.270045
-0.31171
-0.757947
-1.09089
-1.33922
-1.51772
-1.63166
-1.68826
-1.68417
-1.6049
-1.43462
-1.15064
-0.747582
-0.293876
44.1866
44.495
45.3281
46.7381
48.8052
51.7401
55.8726
61.6981
69.852
89.4499
109.511
129.126
123.567
83.3213
59.388
44.4564
28.6675
17.6442
10.483
5.43699
0.27053
-13.7982
-11.1221
-8.19635
-6.90294
-6.2229
-5.76546
-5.44726
-5.20953
-5.01291
-4.85565
-4.72568
-4.60651
-4.48454
-4.32657
-4.08745
-3.7075
-3.09316
-2.16146
-1.02768
40.0534
40.1664
40.5245
41.1702
42.1765
43.7089
46.0587
49.7126
55.4348
76.6477
102.566
145.451
165.534
28.7321
23.5948
5.51325
-4.45356
-8.7178
-11.7149
-14.1573
-20.6667
-13.0534
-14.5914
-16.7707
-17.5121
-17.5342
-17.2871
-16.9236
-16.5111
-16.0828
-15.6361
-15.1599
-14.6881
-14.2212
-13.7011
-13.069
-12.2173
-10.9196
-8.75775
-5.07009
35.645
35.5299
35.3247
35.0409
34.6923
34.3139
33.9613
33.7088
33.5985
47.393
58.6014
128.33
167.905
-708.404
-130.485
-87.5578
-61.628
-56.2691
-52.8433
-50.8453
-68.0038
-39.6645
-37.6156
-35.6255
-33.7465
-31.8835
-30.2058
-28.7531
-27.4854
-26.3563
-25.3253
-24.3729
-23.4832
-22.6018
-21.6953
-20.6986
-19.4947
-17.8012
-15.0005
-9.52507
31.2763
30.922
30.1217
28.8454
27.0336
24.5558
21.1668
16.4061
9.35761
7.99313
-13.2723
-80.4665
-304.653
-259.774
-109.846
-59.6921
-36.6113
-26.3564
-21.0449
-16.8403
-8.84611
6.13443
2.55718
-1.39194
-3.10578
-3.95013
-4.51387
-4.90634
-5.16157
-5.31566
-5.39651
-5.42875
-5.41054
-5.32105
-5.147
-4.86623
-4.41279
-3.66214
-2.4528
-0.824163
27.278
26.7028
25.3456
23.1473
19.9936
15.6384
9.65623
1.30913
-10.7783
-29.4111
-52.7244
-106.451
-176.953
-189.823
-131.647
-82.5875
-54.1977
-37.2242
-26.7888
-19.355
-9.67
-1.15398
-2.44173
-3.99673
-4.05374
-3.61872
-3.18203
-2.79805
-2.4588
-2.16847
-1.92641
-1.72298
-1.55092
-1.39784
-1.23357
-1.03672
-0.782339
-0.437302
-0.0105644
0.314839
23.9613
23.2059
21.3929
18.4491
14.2404
8.48292
0.731244
-9.68375
-23.7319
-42.6597
-67.0424
-94.7101
-118.073
-122.634
-104.709
-78.957
-57.3181
-41.9471
-31.0282
-22.692
-15.6428
-10.9534
-8.38501
-6.52201
-4.82968
-3.43446
-2.38729
-1.61087
-1.02615
-0.583317
-0.247041
0.0112723
0.210109
0.368515
0.506318
0.632658
0.749628
0.845047
0.862519
0.624257
21.589
20.7118
18.5835
15.1278
10.2174
3.57962
-5.17322
-16.5049
-30.8742
-48.5115
-68.8337
-89.5737
-105.212
-108.706
-97.9831
-79.4658
-61.1935
-46.5997
-35.5173
-26.9069
-20.055
-14.7755
-10.7604
-7.81413
-5.5982
-3.90177
-2.6078
-1.62039
-0.862514
-0.279211
0.168469
0.510307
0.768594
0.960502
1.09777
1.18521
1.21638
1.16785
0.985965
0.557589
20.3572
19.4143
17.1204
13.4018
8.13995
1.08022
-8.11057
-19.758
-34.0509
-50.7846
-68.9127
-86.0147
-98.1158
-101.024
-93.3762
-78.6228
-62.4017
-48.3213
-37.1452
-28.3551
-21.3905
-15.937
-11.7678
-8.63474
-6.24682
-4.39208
-2.95051
-1.83695
-0.979325
-0.31971
0.185713
0.570191
0.858866
1.06906
1.21066
1.2864
1.28656
1.18703
0.942075
0.473658
51.6798
52.2054
53.5131
55.5758
58.3198
61.6867
65.5751
69.7648
73.8597
77.243
79.0823
78.4591
74.712
67.9385
59.2015
49.9959
41.3965
33.8413
27.4109
22.061
17.6977
14.2153
11.5071
9.43492
7.81255
6.50112
5.4367
4.58399
3.90841
3.37337
2.94792
2.60718
2.33028
2.0985
1.8943
1.69964
1.49183
1.24361
0.921937
0.489233
50.7213
51.2163
52.4577
54.4276
57.0642
60.3358
64.1751
68.4086
72.6838
76.3934
78.6213
78.2167
74.2383
66.8283
57.5341
48.1586
39.6301
32.1952
25.9119
20.7384
16.5565
13.2591
10.7707
8.90804
7.43806
6.23471
5.25336
4.46021
3.81945
3.29879
2.8733
2.52388
2.23457
1.99021
1.77674
1.58031
1.38112
1.15203
0.855164
0.443898
48.8462
49.2775
50.3777
52.1429
54.541
57.5794
61.2559
65.4891
70.0287
74.3176
77.293
77.2785
72.527
63.4319
53.0472
43.6628
35.4979
28.3545
22.3379
17.4443
13.5457
10.6336
8.76165
7.31624
5.99066
4.84668
3.94744
3.26303
2.73838
2.33323
2.0209
1.78089
1.59755
1.45796
1.35105
1.26753
1.19289
1.10014
0.934484
0.579326
46.1398
46.4727
47.3465
48.77
50.7468
53.3262
56.5806
60.5491
65.1541
70.0049
73.9751
74.5796
68.3065