/*--------------------------------*- C++ -*----------------------------------*\
| =========                 |                                                 |
| \\      /  F ield         | OpenFOAM: The Open Source CFD Toolbox           |
|  \\    /   O peration     | Version:  2306                                  |
|   \\  /    A nd           | Website:  www.openfoam.com                      |
|    \\/     M anipulation  |                                                 |
\*---------------------------------------------------------------------------*/
FoamFile
{
    version     2.0;
    format      ascii;
    arch        "LSB;label=32;scalar=64";
    class       surfaceScalarField;
    location    "0.3";
    object      phi;
}
// * * * * * * * * * * * * * * * * * * * * * * * * * * * * * * * * * * * * * //

dimensions      [0 3 -1 0 0 0 0];

oriented        oriented;

internalField   nonuniform List<scalar> 
338621
(
24.9948
0.00261525
0.00121036
24.9869
0.00530296
0.00257262
24.9744
0.00824984
0.00416217
24.9569
0.0113246
0.0061027
24.9334
0.01464
0.00869011
24.9005
0.0206089
0.012076
24.8538
0.0300149
0.016365
24.7911
0.0404725
0.0218576
24.7297
0.0320674
0.0287801
24.6875
0.00460382
0.0370437
24.6604
-0.0200596
0.0464808
24.5877
0.015211
0.0566522
24.6173
-0.0976655
0.0672845
24.7482
-0.209067
0.0773878
24.7899
-0.128701
0.0863459
24.8216
-0.126077
0.0937654
24.8496
-0.127973
0.0995885
24.872
-0.126826
0.104167
24.8908
-0.12639
0.107518
24.9167
-0.135968
0.109944
24.946
-0.140766
0.111443
24.9684
-0.134856
0.112465
24.9857
-0.13052
0.113199
25.0002
-0.128064
0.113626
25.0126
-0.126449
0.113981
25.0233
-0.125016
0.114337
25.0327
-0.124079
0.114663
25.0408
-0.123081
0.114973
25.0477
-0.122185
0.11537
25.0535
-0.121661
0.115821
25.0585
-0.12127
0.116293
25.0628
-0.121035
0.116736
25.0664
-0.120887
0.117236
25.0695
-0.120824
0.11774
25.0722
-0.120857
0.118178
25.0749
-0.121278
0.11855
25.0777
-0.121575
0.118789
25.0807
-0.121925
0.118949
25.0841
-0.122367
0.118969
-0.123159
0.118575
24.9948
0.00519523
0.00118818
24.9868
0.0107182
0.00249304
24.974
0.0169954
0.00406327
24.9563
0.0228675
0.00598302
24.9328
0.0294639
0.00854342
24.9031
0.0382596
0.0118189
24.8675
0.0492539
0.0161537
24.822
0.0638926
0.021731
24.7579
0.0668476
0.0288228
24.6841
0.0404109
0.0374661
24.6425
-0.0266466
0.0476632
24.6306
-0.0320315
0.0584786
24.6703
-0.208607
0.0706393
24.7547
-0.375979
0.0818725
24.8347
-0.300699
0.0914405
24.9023
-0.293243
0.0991717
24.9537
-0.284744
0.105196
24.9949
-0.278015
0.109837
25.039
-0.283836
0.113259
25.0723
-0.284814
0.115592
25.0919
-0.27758
0.117138
25.1059
-0.266927
0.118118
25.1155
-0.259022
0.118899
25.1233
-0.255335
0.119458
25.1295
-0.252565
0.119935
25.1346
-0.250478
0.120346
25.1383
-0.248495
0.120778
25.1414
-0.247369
0.121199
25.144
-0.246505
0.121651
25.1458
-0.245588
0.122128
25.1471
-0.245112
0.122612
25.1475
-0.244586
0.123089
25.1478
-0.244763
0.123567
25.1479
-0.244865
0.124015
25.1478
-0.245156
0.124405
25.1476
-0.245897
0.124759
25.1477
-0.246585
0.124965
25.1481
-0.247455
0.125115
25.1493
-0.248717
0.125094
-0.249481
0.124728
24.9952
0.00740583
0.00113396
24.9873
0.0161736
0.0023786
24.9751
0.0252686
0.00384376
24.9569
0.0352384
0.00574849
24.9323
0.0456679
0.00821939
24.901
0.0579522
0.0114479
24.8611
0.0731101
0.0158244
24.8121
0.091052
0.0215307
24.7436
0.106005
0.0290315
24.6463
0.0987558
0.038601
24.5711
0.00539313
0.0502763
-0.00613218
0.00483504
-0.00613912
24.6695
-0.0387358
0.0640005
-0.0584356
-0.0388828
-0.0587566
24.563
-0.0109108
0.0768382
-0.0950396
0.0207755
-0.094191
24.7359
-0.18161
0.0892975
-0.123121
-0.212113
-0.121721
24.8286
-0.127945
0.0989898
-0.12044
-0.126073
-0.118244
24.8884
-0.116966
0.106617
-0.115087
-0.114597
-0.113158
24.9413
-0.113374
0.112634
-0.11376
-0.111657
-0.111524
25.0061
-0.116331
0.117325
-0.115452
-0.114548
-0.113742
25.0482
-0.113153
0.120794
-0.111864
-0.111405
-0.110191
25.0731
-0.109604
0.123044
-0.108601
-0.107774
-0.106715
25.0905
-0.419387
0.124402
25.1039
-0.405506
0.125245
25.1123
-0.393484
0.126078
25.119
-0.389014
0.126953
25.1247
-0.38611
0.127812
25.1293
-0.383554
0.12857
25.1325
-0.381003
0.129231
25.1352
-0.379886
0.129814
25.1367
-0.378268
0.130326
25.1379
-0.377592
0.130779
25.1382
-0.376596
0.131173
25.1382
-0.376055
0.131514
25.1374
-0.375762
0.131758
25.1365
-0.375959
0.13205
25.135
-0.375929
0.132219
25.1334
-0.376702
0.132386
25.1322
-0.377797
0.132432
25.1313
-0.379009
0.132444
25.1307
-0.38043
0.132326
-0.381875
0.131946
24.9955
0.0098452
0.00105042
24.9886
0.0208314
0.00220434
24.9767
0.0336047
0.00353966
24.9597
0.0468294
0.00534691
24.935
0.0625944
0.00765592
24.9005
0.0815183
0.0107639
24.855
0.103396
0.015022
24.7971
0.128038
0.0207506
24.7308
0.14355
0.0285526
6.14181
0.0369904
0.0390107
0.0540807
0.0376834
0.0533721
6.16389
6.1408
6.16171
6.12434
0.0171557
0.00569017
-6.11142
6.09947
-0.0342749
0.00747102
-6.10359
6.12525
-0.0418767
0.00928504
-6.11766
6.14468
-0.219742
0.0111046
-6.16346
6.1777
-0.154595
0.0123991
-6.19092
6.2015
-0.140841
0.0132904
-6.21269
6.22684
-0.141633
0.014112
-6.23866
6.24571
-0.138211
0.0148382
-6.25138
6.25645
-0.133625
0.0154097
-6.26076
6.26466
-0.129353
0.0158519
25.1001
-0.142425
0.132126
-0.143552
-0.140805
-0.142235
-6.26817
-6.27274
-6.26865
-6.27296
25.1051
-0.543432
0.132888
25.1077
-0.530078
0.134082
25.1107
-0.527483
0.135437
25.1122
-0.524383
0.136817
25.1123
-0.52174
0.138063
25.1122
-0.520046
0.139118
25.1109
-0.518526
0.13997
25.1085
-0.516484
0.140612
25.105
-0.515186
0.141054
25.1008
-0.51368
0.141307
25.0956
-0.512257
0.141399
25.0895
-0.510931
0.14132
25.0828
-0.510551
0.141262
25.0757
-0.509934
0.141053
25.0681
-0.509956
0.14085
25.0604
-0.510622
0.140546
25.0527
-0.511502
0.140174
25.0463
-0.513664
0.139728
-0.515082
0.139048
24.9972
0.0105455
0.000936933
24.9912
0.0248744
0.00196453
24.9813
0.0402909
0.00314464
24.9657
0.057564
0.00475469
24.9428
0.0786449
0.00681181
24.9094
0.105252
0.00959576
24.8595
0.139725
0.0134117
24.7855
0.183203
0.0187329
6.17136
0.232391
0.0260385
6.16411
6.17093
6.16405
6.15535
0.0490893
0.00390141
6.13019
0.00546872
-6.15794
0.0199786
0.0118502
0.0115743
0.0202577
-0.0413812
-6.07767
6.0438
0.00738577
-0.00232035
0.00411021
0.00356899
-0.00198805
0.0231151
-6.04365
6.06227
0.00950519
0.0292306
-0.0400716
-0.0403851
-0.0189619
0.0420851
-6.11497
6.14049
0.0116901
-0.0514428
-0.0662441
-0.104241
-0.0518404
0.236585
-6.17297
6.18476
0.0123701
-0.0493748
-0.0534129
-0.0527444
-0.0497839
0.181166
-6.19611
6.20917
0.0127783
-0.0493474
-0.0487934
-0.0485306
-0.049605
0.170449
-6.22236
6.23383
0.0134554
-0.0476154
-0.0477476
-0.0474247
-0.0479565
0.165835
-6.24318
6.2502
0.0142452
-0.0452405
-0.0453462
-0.0449732
-0.0456248
0.159944
-6.2564
6.26086
0.0150261
-0.0430672
-0.0434552
-0.0430861
-0.0434473
0.153585
-6.26487
6.26696
0.0157752
-0.0412095
-0.0417994
-0.0414541
-0.0415575
0.148165
-6.27
6.27188
-0.161169
0.0168645
25.0452
-0.639134
0.129856
-6.2723
-6.26548
-6.27305
-6.26849
25.019
-0.636146
0.132214
24.9912
-0.633461
0.133832
24.9635
-0.631371
0.134692
24.9374
-0.630616
0.134998
24.9125
-0.629912
0.134791
24.8885
-0.628619
0.134082
24.8659
-0.626847
0.132929
24.8438
-0.624497
0.131404
24.8225
-0.621983
0.129612
24.802
-0.619425
0.127663
24.7823
-0.616848
0.125634
24.7627
-0.614687
0.123724
24.744
-0.613077
0.121882
24.7258
-0.611941
0.120178
24.7082
-0.611651
0.118562
24.692
-0.612234
0.116972
24.6772
-0.614256
0.115368
-0.618613
0.113605
24.9999
0.00919779
0.000794955
24.9965
0.0265716
0.00166017
24.9889
0.0451949
0.00266005
24.9771
0.0653896
0.00394374
24.9594
0.0906081
0.00564296
24.9323
0.124414
0.00788595
24.8892
0.17189
0.0108992
24.8168
0.240374
0.0151228
6.1708
0.346235
0.0208124
6.17033
6.17078
6.17015
-0.0650404
6.14522
0.0874963
0.00311286
-0.0195906
-1.52765
1.52252
0.0241364
0.000583239
-0.019312
-1.50443
1.49237
0.0306564
0.000715771
-1.46911
0.0521535
1.47913
-0.0632358
0.00107347
-1.53105
0.0839503
1.5399
-0.0939307
0.00112978
-1.5382
0.0592392
-0.0622885
0.00124635
1.54
-1.5487
0.0568592
-0.0606729
0.0014259
1.55109
0.0545201
-1.55641
1.55775
-0.0575263
0.00166722
0.050904
-1.56038
1.56083
-0.0533757
0.00202006
0.0485567
-1.56119
1.56118
-0.0509438
0.00240259
0.046505
-1.56023
1.55974
-0.0487392
0.00272805
-1.55312
0.176054
6.15605
-0.169271
0.0202063
-1.53549
-1.55469
-1.53974
23.8521
-0.729916
0.0671757
-6.09822
-5.80129
-6.11833
-5.81062
23.8642
-0.717581
0.0692698
23.8724
-0.711662
0.0700121
23.8793
-0.707444
0.0692324
23.8853
-0.704317
0.0677125
23.891
-0.701429
0.0657839
23.8971
-0.698365
0.0636063
23.9039
-0.694952
0.0612958
23.9117
-0.691245
0.0589419
23.9205
-0.687338
0.0566084
23.9301
-0.683354
0.0543297
23.9407
-0.679579
0.0520923
23.9521
-0.676035
0.0499501
23.9641
-0.672826
0.0478173
23.9767
-0.670248
0.0456521
23.9898
-0.668145
0.0433829
24.0033
-0.666619
0.0409095
24.0166
-0.665655
0.0381414
-0.664713
0.0351862
25.0031
0.00527512
0.000645204
25.0036
0.0246504
0.00131939
25.0008
0.0459181
0.00209556
24.9952
0.0680211
0.00301274
24.9864
0.0951696
0.00419454
24.9728
0.132244
0.00573599
24.953
0.18402
0.00766084
24.9216
0.261625
0.0101431
6.21308
0.387122
0.0131051
6.22108
6.21275
6.22069
-0.105855
6.19759
0.119462
0.00187773
-0.0392349
-1.54198
1.53582
0.045074
0.00031677
-0.0818454
-1.50644
1.488
0.100034
0.000254955
0.00441832
-0.0747373
0.0749258
-0.00463314
2.63658e-05
-0.0214245
0.000448624
0.0209367
2.41376e-06
3.68047e-05
-0.223245
0.0150695
-0.0260744
-0.00147603
0.235726
-1.19319
0.0600521
-0.0776294
-0.00465616
1.21543
0.0566123
-1.26264
1.27309
-0.0623676
-0.00469367
0.0569924
-1.30452
1.31481
-0.0621733
-0.00511374
0.0555954
-1.34154
1.34979
-0.0584896
-0.00535423
0.0546488
-1.37095
1.37831
-0.0570275
-0.00497807
-1.41143
0.199128
5.82524
-0.218925
-0.0235817
-1.49836
-1.38309
-1.48898
24.0426
-0.665785
-0.115064
-5.87593
-6.168
-5.78299
-6.16472
24.0856
-0.642691
-0.11795
24.1258
-0.63288
-0.118939
24.1632
-0.626079
-0.11877
24.1965
-0.620174
-0.117454
24.2255
-0.615355
-0.115058
24.2505
-0.6115
-0.111911
24.2721
-0.608261
-0.108235
24.2907
-0.605555
-0.104351
24.3071
-0.603256
-0.100512
24.322
-0.601286
-0.0969628
24.336
-0.599688
-0.093816
24.3495
-0.598339
-0.0912827
24.3632
-0.597176
-0.0893471
24.3772
-0.596089
-0.0881132
24.3919
-0.595232
-0.0876101
24.4073
-0.594239
-0.0878263
24.4233
-0.592795
-0.0887894
-0.589951
-0.0904482
25.0048
0.000218344
0.000474361
25.0102
0.0183277
0.000965672
25.0152
0.0394057
0.00147888
25.0193
0.0619261
0.00205127
25.0213
0.0905711
0.00266773
25.0263
0.123849
0.00339502
25.0382
0.168045
0.00409624
25.0637
0.231556
0.0045984
6.27409
0.332087
0.00457705
6.28188
6.27424
6.28406
-0.111614
6.28167
0.103538
0.000504223
-0.0445577
-1.57779
1.57945
0.0428666
3.21755e-05
-0.0839146
-1.59783
1.61274
-0.000198498
0.0692027
-0.0258241
-1.71197
1.7504
-0.00115547
0.0565686
-0.021038
-0.025918
-0.0210699
0.09585
-1.71183
1.68312
-0.000649712
-0.0664985
0.0994249
-1.61004
-0.000823606
1.59949
-0.0880546
0.076158
-1.5848
-0.0011538
1.58182
-0.0720231
0.0554017
-1.577
1.57602
-0.0530589
-0.00135846
0.0563735
-1.57416
1.57233
-0.0530085
-0.00153905
0.0509713
-1.5719
1.57125
-0.0486034
-0.0017177
0.0476394
-1.57032
1.56984
-0.0452663
-0.00188489
-1.56757
0.17859
6.26459
-0.158285
-0.0157855
-1.56705
-1.56731
-1.56717
25.0729
-0.538783
-0.123386
-6.26856
-6.26813
-6.27087
-6.26899
25.0757
-0.52001
-0.125492
25.0745
-0.505207
-0.126453
25.0721
-0.49679
-0.126851
25.0697
-0.490846
-0.126918
25.0674
-0.486508
-0.126626
25.0653
-0.483263
-0.126119
25.0631
-0.4806
-0.125398
25.0612
-0.479079
-0.124578
25.0594
-0.477739
-0.123727
25.0576
-0.47655
-0.122973
25.0562
-0.476057
-0.122231
25.0551
-0.475465
-0.121737
25.0539
-0.474613
-0.121407
25.0535
-0.474248
-0.121391
25.0535
-0.473516
-0.121722
25.0541
-0.472447
-0.122425
25.0556
-0.470711
-0.123557
-0.46847
-0.125031
25.0058
-0.00491959
0.000277353
25.0144
0.00914199
0.000605915
25.0276
0.0253873
0.000879213
25.039
0.0493846
0.00110245
25.0545
0.0739418
0.00123352
25.078
0.0992672
0.00117703
25.1157
0.129623
0.000775957
25.1786
0.169208
-0.000412909
6.32038
0.230948
-0.00285418
6.31858
6.32467
6.31912
-0.0888452
6.33633
0.0735442
-0.00064785
-0.0332798
6.41247
0.0879481
-0.00152503
-0.0344525
-0.0333579
-0.0339469
-6.36385
-0.0334978
6.51554
0.0762088
-0.00323962
-0.0262682
-0.0332682
-0.0261159
-6.46936
-0.00770734
-6.54588
6.51236
-0.00453198
-0.00578769
0.0145718
-0.00792195
0.0448892
0.044502
-6.53452
6.51332
-0.121154
-0.00826106
0.0383338
0.0351625
0.0326075
0.0542489
-6.44906
6.41145
-0.175534
-0.010218
0.054788
0.0566679
0.0576642
0.0557795
-6.3714
6.33918
-0.1742
-0.0117499
0.05454
0.0547144
0.0531449
0.0461548
-6.32098
6.3097
-0.156464
-0.0130044
0.0452498
0.0449621
0.0443709
0.0442274
-6.30098
6.29507
-0.155742
-0.013943
0.0440082
0.0437687
0.0435702
0.0412683
-6.29064
6.28531
-0.143
-0.0145728
0.0407713
0.0407431
0.0401122
0.0383638
-6.28113
6.27578
-0.130913
-0.0150008
0.0378951
0.0378054
0.0371891
0.141828
-6.27434
6.27258
-0.124656
-0.0154156
25.0721
-0.403682
-0.127182
-6.27017
-6.27014
-6.27039
-6.26936
25.0658
-0.386397
-0.127265
25.0631
-0.375288
-0.127204
25.0611
-0.367777
-0.127081
25.0598
-0.362657
-0.126841
25.0586
-0.358888
-0.126445
25.0576
-0.356375
-0.125926
25.057
-0.354655
-0.125332
25.0562
-0.353571
-0.124707
25.0555
-0.352935
-0.124089
25.0549
-0.352375
-0.123546
25.0543
-0.352496
-0.123048
25.0537
-0.352163
-0.122615
25.0538
-0.35238
-0.122349
25.0539
-0.352156
-0.122253
25.0543
-0.351555
-0.122334
25.0557
-0.351165
-0.122648
25.0585
-0.35029
-0.123247
-0.349365
-0.124158
25.0065
-0.0101475
0.00019025
25.0165
-0.00123432
0.00033805
25.0256
0.0159082
0.000397373
25.0424
0.0323046
0.000351592
25.0693
0.0471419
5.73832e-05
25.1028
0.0664262
-0.000589112
25.1503
0.0841642
-0.00183271
25.2165
0.107344
-0.0041247
25.3251
0.130699
-0.00811052
25.4294
0.143933
-0.0146345
-0.0613482
-0.0569107
-0.0584388
-0.05666
25.5759
0.131182
-0.0245272
-0.060795
-0.0642346
-0.0612244
-0.0666622
25.7088
0.0538304
-0.0385576
-0.0422908
-0.0286575
-0.0451201
-0.031771
25.587
-0.15662
-0.055382
0.0205397
0.123151
0.0196374
0.170875
25.4953
-0.237916
-0.0736393
0.0823828
0.116008
0.0982427
0.106997
25.4268
-0.249374
-0.0894804
0.0823068
0.147895
0.0310569
0.146389
25.341
-0.35433
-0.101788
0.135027
0.138161
0.133432
0.135556
25.2568
-0.324579
-0.110173
0.12907
0.132812
0.126867
0.130229
25.1909
-0.334479
-0.115693
0.132172
0.129148
0.129111
0.125591
25.1485
-0.312697
-0.119126
0.121986
0.118777
0.118738
0.114667
25.1259
-0.29261
-0.121152
0.111141
0.11084
0.106484
0.107894
25.1079
-0.276892
-0.122209
0.106207
0.105436
0.103443
0.101962
25.0923
-0.265635
-0.122474
25.0834
-0.255187
-0.122336
25.078
-0.247705
-0.122137
25.0741
-0.241931
-0.121975
25.071
-0.237838
-0.121726
25.0689
-0.235307
-0.121491
25.0666
-0.232816
-0.121293
25.0648
-0.231686
-0.121155
25.0629
-0.230537
-0.121097
25.0613
-0.230242
-0.121122
25.0601
-0.22996
-0.12124
25.0587
-0.229561
-0.121453
25.0579
-0.229715
-0.121671
25.0569
-0.229364
-0.122036
25.0564
-0.229194
-0.122451
25.0569
-0.229107
-0.122952
25.0581
-0.22882
-0.123563
25.0596
-0.227518
-0.124309
-0.226409
-0.125189
25.0068
-0.0151841
9.54737e-05
25.0102
-0.00472054
0.000145914
25.0182
0.00789991
5.59311e-05
25.038
0.0126843
-0.000156944
25.0638
0.022217
-0.000705199
25.0934
0.0387667
-0.00174471
25.1414
0.0398731
-0.00348856
25.2025
0.0528357
-0.00632486
25.2814
0.063133
-0.0108834
25.3765
0.0669939
-0.017715
25.4823
0.0532874
-0.0273778
25.5614
0.0157228
-0.0403453
25.5383
-0.0772485
-0.055694
25.5237
-0.151129
-0.0715889
25.4009
-0.0401298
-0.0858056
25.3184
-0.174014
-0.0973658
25.2685
-0.168932
-0.105524
25.2076
-0.162249
-0.111201
25.1636
-0.153885
-0.114758
25.1328
-0.14493
-0.116889
25.1107
-0.136757
-0.118034
25.0939
-0.130439
-0.118384
25.0822
-0.125171
-0.118342
25.0739
-0.121339
-0.118059
25.0681
-0.118367
-0.117725
25.0639
-0.116382
-0.117271
25.0602
-0.114733
-0.116881
25.0577
-0.113775
-0.116571
25.0557
-0.1134
-0.116289
25.0541
-0.112781
-0.116122
25.0527
-0.112858
-0.116045
25.0514
-0.112574
-0.116064
25.0508
-0.112853
-0.116127
25.0501
-0.112717
-0.116271
25.0502
-0.112962
-0.116493
25.0505
-0.112702
-0.116754
25.0513
-0.112868
-0.117061
25.0526
-0.1127
-0.117438
25.0553
-0.112246
-0.117924
-0.112669
-0.118568
24.9871
6.59486e-05
24.9823
9.83973e-05
24.9904
-6.11011e-05
25.0034
-0.000297726
25.0268
-0.000987746
25.0679
-0.00213256
25.1121
-0.00402772
25.1724
-0.00707114
25.2478
-0.0118107
25.3341
-0.0186194
25.416
-0.027923
25.4725
-0.0399647
25.4499
-0.0538766
25.3679
-0.0682621
25.4099
-0.0814429
25.3291
-0.0926922
25.2613
-0.100825
25.2056
-0.10634
25.1617
-0.109876
25.1288
-0.111985
25.1052
-0.113108
25.0883
-0.113487
25.0765
-0.113402
25.0681
-0.113016
25.0624
-0.112611
25.0582
-0.112158
25.0552
-0.111781
25.053
-0.111571
25.051
-0.111372
25.0495
-0.111343
25.0481
-0.111457
25.0472
-0.111632
25.0462
-0.111869
25.0457
-0.112193
25.0453
-0.112625
25.0457
-0.113069
25.0464
-0.113526
25.0477
-0.114019
25.05
-0.114586
-0.115277
24.9951
0.00200695
0.00236369
24.9878
0.00482451
0.00494087
24.9763
0.00741102
0.00799918
24.9598
0.0105234
0.0118149
24.938
0.0132986
0.0167152
24.9083
0.0179096
0.0231259
24.8663
0.0260044
0.0314537
24.8092
0.0357106
0.0421267
24.7541
0.0269028
0.0554693
24.7187
-0.00124105
0.0718158
24.6952
-0.0225962
0.0905287
24.6344
0.00402465
0.111057
24.6641
-0.0970083
0.132131
24.7824
-0.195705
0.15243
24.8152
-0.118694
0.170196
24.8392
-0.116638
0.184676
24.8623
-0.12069
0.196
24.8815
-0.120444
0.204709
24.8982
-0.120754
0.211157
24.9254
-0.13319
0.215763
24.9525
-0.134569
0.21882
24.9735
-0.12946
0.220885
24.9901
-0.125724
0.222279
25.004
-0.123479
0.223227
25.0156
-0.121472
0.2239
25.0256
-0.12013
0.224421
25.0341
-0.11867
0.224881
25.0411
-0.117387
0.225341
25.0471
-0.116536
0.225878
25.0523
-0.115879
0.22653
25.0565
-0.115165
0.227279
25.0598
-0.114648
0.228115
25.0629
-0.114826
0.228987
25.0658
-0.115156
0.229931
25.0683
-0.115117
0.230801
25.071
-0.115738
0.231641
25.0737
-0.11617
0.232224
25.0767
-0.116717
0.232667
25.0805
-0.117534
0.232722
-0.11819
0.231831
24.9952
0.00402931
0.00230927
24.988
0.00963099
0.0048309
24.976
0.0153827
0.00783348
24.9595
0.0210944
0.0116006
24.9373
0.0271507
0.0164611
24.9095
0.0340693
0.0228646
24.8764
0.0431845
0.0312526
24.8341
0.0565768
0.042164
24.7719
0.0605591
0.0561058
24.6972
0.0358598
0.0734889
24.6556
-0.0290148
0.094009
24.5961
0.00323827
0.116926
24.6328
-0.205362
0.140422
24.7656
-0.411291
0.162816
24.8462
-0.291215
0.181751
24.9137
-0.283002
0.196895
24.9636
-0.274864
0.20873
25.0036
-0.268734
0.217676
25.0487
-0.276981
0.224264
25.0807
-0.278461
0.228827
25.0993
-0.267905
0.231877
25.1124
-0.258432
0.233967
25.1213
-0.251173
0.235473
25.1282
-0.24738
0.236506
25.1339
-0.244491
0.237232
25.138
-0.241635
0.237799
25.1408
-0.239086
0.238342
25.1434
-0.23768
0.238937
25.145
-0.236155
0.239635
25.1458
-0.234993
0.240441
25.1464
-0.234456
0.241344
25.1468
-0.234289
0.242313
25.1464
-0.234223
0.243356
25.1459
-0.234947
0.244369
25.1458
-0.235933
0.245323
25.1453
-0.236628
0.246152
25.1453
-0.237993
0.24678
25.146
-0.239478
0.247148
25.1469
-0.240508
0.247173
-0.241948
0.246208
24.9954
0.00602872
0.00220187
24.9883
0.0143078
0.00461227
24.9766
0.0232623
0.00749591
24.9597
0.0323916
0.011138
24.9365
0.0422952
0.0158847
24.9063
0.0529231
0.022219
24.8683
0.0656466
0.0306852
24.8221
0.0815724
0.04198
24.7569
0.0968885
0.056903
24.6628
0.0914359
0.076148
24.5872
0.00414831
0.0998662
-0.00631657
0.00375668
-0.00577216
24.7235
-0.0395608
0.126964
-0.0597865
-0.0391834
-0.0586488
24.5835
0.0205854
0.154672
-0.0950878
0.0222642
-0.0922126
24.7461
-0.214208
0.180534
-0.122698
-0.211017
-0.118381
24.8355
-0.127025
0.200364
-0.119158
-0.122718
-0.114082
24.894
-0.115839
0.215666
-0.114511
-0.111268
-0.109398
24.9469
-0.113281
0.227749
-0.113113
-0.108446
-0.108111
25.0118
-0.116096
0.236933
-0.115327
-0.111245
-0.110329
25.0538
-0.113141
0.24359
-0.112046
-0.108417
-0.107817
25.0791
-0.11003
0.248019
-0.10854
-0.105952
-0.104045
25.0968
-0.41182
0.250731
25.1089
-0.397891
0.252701
25.117
-0.387323
0.254165
25.1232
-0.382452
0.255811
25.1282
-0.378519
0.256837
25.132
-0.374665
0.257834
25.135
-0.371085
0.258221
25.1367
-0.368409
0.258882
25.1376
-0.366333
0.25963
25.1385
-0.365634
0.260496
25.1381
-0.364291
0.261463
25.1373
-0.364565
0.262506
25.1368
-0.365283
0.263336
25.1354
-0.366063
0.264639
25.1336
-0.367534
0.265584
25.1321
-0.369147
0.26636
25.1307
-0.371033
0.266872
25.1296
-0.372923
0.267035
25.1294
-0.374762
0.266798
-0.376238
0.265548
24.9964
0.00761413
0.00203722
24.9897
0.0188015
0.00427106
24.9783
0.0310835
0.00695194
24.9617
0.0438041
0.0103593
24.9384
0.0580664
0.0148497
24.9052
0.075531
0.0209245
24.8605
0.0955903
0.0292592
24.8028
0.118771
0.0407093
24.7348
0.136276
0.0564802
6.14297
0.0367817
0.078018
0.0513945
0.0365095
0.0507514
6.16285
6.14315
6.16234
-0.0113008
6.12601
0.0152111
0.0171397
-0.0149642
-6.11435
6.10284
-0.0358225
0.0226814
-0.0187282
-6.10722
6.10001
0.0180461
0.0284431
-0.0224276
-6.11565
6.14763
-0.257883
0.0340904
-0.0251287
-6.16575
6.17946
-0.153863
0.038223
-0.0270679
-6.19239
6.203
-0.14056
0.0411679
-0.0287047
-6.2137
6.22794
-0.142464
0.0436817
-0.0300767
-6.24055
6.24772
-0.138927
0.0457938
-0.0311367
-6.25344
6.25859
-0.134498
0.0473946
-0.0318786
-6.26224
6.2661
-0.130547
0.0485665
25.1015
-0.143822
0.275585
-0.144428
-0.142817
-0.140623
-6.26966
-6.27328
-6.26922
-6.27274
25.1075
-0.548577
0.277641
25.1107
-0.534495
0.278075
25.1139
-0.5299
0.279656
25.1159
-0.524608
0.280949
25.1162
-0.5194
0.282492
25.1162
-0.515469
0.283525
25.115
-0.512073
0.284871
25.1124
-0.509465
0.286287
25.1083
-0.508194
0.287741
25.1034
-0.507249
0.289172
25.0973
-0.507538
0.29052
25.09
-0.508096
0.291441
25.0821
-0.509561
0.292667
25.0736
-0.511248
0.293257
25.065
-0.513327
0.293585
25.0561
-0.514882
0.293354
25.0476
-0.516864
0.292575
25.0407
-0.519292
0.291135
-0.520418
0.288408
24.9981
0.00750754
0.00181306
24.9927
0.0222932
0.0038019
24.9829
0.0377592
0.00618292
24.9679
0.0541417
0.00921125
24.9455
0.073812
0.0132236
24.9132
0.0987286
0.0184438
24.8644
0.131093
0.0263218
24.7919
0.172595
0.0370167
6.17321
0.221419
0.0523258
6.16644
6.17368
6.16675
-0.00773791
6.15826
0.0476694
0.0117739
-0.0109233
6.13282
0.0166783
-6.161
0.0189844
0.0108584
0.0193021
0.0105493
-0.0372648
-0.0148877
-6.08091
6.04858
0.0229203
-0.00334728
0.00235788
-0.00325798
0.00219348
0.0263932
-0.0193608
-6.04782
6.06202
0.0299377
0.0515795
-0.0412573
0.0512173
-0.0411455
-0.0449914
-0.0236991
-6.10264
6.1436
0.0365371
-0.051026
-0.129328
-0.0515977
-0.128969
0.307296
-0.025544
-6.17371
6.18417
0.0394757
-0.0492906
-0.0530645
-0.049905
-0.0525142
0.180442
-0.0266877
-6.19656
6.20997
0.0412793
-0.0499672
-0.0496941
-0.0505899
-0.0491051
0.171407
-0.0280103
-6.22331
6.23509
0.0433205
-0.0484416
-0.0489
-0.0490772
-0.0482849
0.167737
-0.0293408
-6.24469
6.25185
0.0452827
-0.0457585
-0.0464029
-0.0465947
-0.0458071
0.161589
-0.0304884
-6.25822
6.26239
0.0469538
-0.0436349
-0.0442694
-0.0441276
-0.0437624
0.155235
-0.0313786
-6.26629
6.26811
0.0483439
-0.0418594
-0.0423359
-0.0419578
-0.0419697
0.14936
-6.27007
-0.0315068
6.27169
-0.163812
0.0498869
25.04
-0.663837
0.27935
-6.2723
-6.26429
-6.27224
-6.26538
25.0145
-0.652634
0.275859
24.989
-0.642902
0.272348
24.9642
-0.634032
0.268916
24.9411
-0.627373
0.266096
24.9185
-0.622221
0.264132
24.8965
-0.61829
0.262311
24.8745
-0.615808
0.261309
24.8517
-0.614669
0.260704
24.8286
-0.614854
0.260286
24.8053
-0.616181
0.259632
24.7818
-0.618288
0.259331
24.7583
-0.620743
0.258431
24.7354
-0.62364
0.257155
24.7131
-0.626306
0.255412
24.6925
-0.628759
0.253045
24.6737
-0.630996
0.249913
24.6574
-0.633477
0.245908
-0.636996
0.240609
25.0019
0.00413947
0.001527
24.9995
0.0231152
0.00320795
24.9916
0.0430136
0.00519194
24.9794
0.0625214
0.00768628
24.9617
0.0860173
0.0109621
24.9356
0.11765
0.0148978
24.8932
0.1626
0.0215458
24.822
0.22852
0.0301363
6.17266
0.332208
0.0426838
6.17168
6.17302
6.17179
-0.00614334
-0.0624585
6.14743
0.0842515
0.00956162
-0.00199383
-0.0185464
-1.52821
1.52304
0.0230584
0.00264792
-0.00287526
-0.0171381
-1.50507
1.4927
0.0287119
0.00369931
-0.00413558
-1.47048
0.053336
1.48058
-0.0645486
0.00530523
-0.00555458
-1.53027
0.153649
1.54183
-0.166681
0.00709888
-0.005768
-1.53831
0.0591399
-0.0625899
1.54016
0.00740421
-1.54911
-0.00571524
0.0585312
-0.0633143
0.00785628
1.55175
-0.00605497
0.056552
-1.55708
1.55842
-0.0603363
0.00850175
-0.00638066
0.0526989
-1.561
1.5614
-0.0558926
0.00917899
-0.00637978
0.049895
-1.56157
1.56147
-0.0529297
0.00951264
-0.00610005
0.0473347
-1.56038
1.55983
-0.050103
0.00941241
-1.55287
-0.0218458
0.178601
6.15285
-0.172819
0.0421413
-1.53406
-1.55377
-1.53822
23.7957
-0.750936
0.140051
-6.09227
-5.79141
-6.10095
-5.79685
23.8031
-0.728634
0.13785
23.8145
-0.718112
0.133839
23.8287
-0.708274
0.129306
23.8439
-0.700003
0.125137
23.8589
-0.693242
0.121763
23.8739
-0.688063
0.118448
23.8881
-0.684522
0.115775
23.9016
-0.6826
0.113343
23.9145
-0.682053
0.110974
23.9269
-0.682561
0.108293
23.9386
-0.683852
0.105916
23.9502
-0.68547
0.103061
23.9616
-0.687103
0.0999663
23.9728
-0.688471
0.0965627
23.984
-0.689364
0.0927715
23.9952
-0.689666
0.088403
24.0061
-0.689343
0.0830732
-0.688394
0.0759699
25.0089
0.00285736
0.00124133
25.0096
0.0211747
0.00253756
25.0062
0.044478
0.00404152
24.9993
0.0664873
0.00587487
24.9892
0.0920739
0.00819406
24.9754
0.126398
0.0107111
24.9556
0.174839
0.0151728
24.9247
0.249217
0.0203461
6.21343
0.372936
0.0274185
6.22131
6.21348
6.22143
-0.00374823
-0.102123
6.19783
0.115587
0.00588394
-0.0011333
-0.0380678
-1.54195
1.53575
0.0438766
0.00151653
-0.00132384
-0.0799708
-1.50569
1.48715
0.0979912
0.00185579
-0.000140227
0.0046667
-0.0748877
0.0751547
-0.00496912
0.000175831
0.00370804
-0.198626
0.0113759
-0.02115
-0.00922067
0.213911
-1.15759
0.00910348
0.0568482
-0.0766285
-0.0161589
1.18442
0.00735681
0.055077
-1.2456
1.2599
-0.0616945
-0.0150353
0.00445327
0.0605875
-1.30163
1.31507
-0.0659693
-0.0125067
0.00248345
0.0613494
-1.34851
1.35811
-0.0634488
-0.0099866
0.00199842
0.0603736
-1.38048
1.38763
-0.0615769
-0.00794508
-1.41756
0.0240946
0.201067
5.83316
-0.223595
-0.0406116
-1.50063
-1.38323
-1.4927
24.1079
-0.684877
-0.220949
-5.88533
-6.17122
-5.83752
-6.17399
24.1348
-0.655033
-0.218469
24.1549
-0.642643
-0.214561
24.1717
-0.632769
-0.211083
24.1865
-0.624333
-0.207914
24.2011
-0.617876
-0.204977
24.2169
-0.61348
-0.202271
24.2346
-0.61078
-0.199741
24.2545
-0.609534
-0.197303
24.2762
-0.609382
-0.194873
24.2993
-0.610164
-0.192435
24.3232
-0.611658
-0.189955
24.3474
-0.613443
-0.187551
24.3711
-0.614929
-0.185226
24.3937
-0.616055
-0.183107
24.4147
-0.616641
-0.181344
24.434
-0.616546
-0.180233
24.4513
-0.615244
-0.180119
-0.611634
-0.181502
25.0084
-0.00233501
0.000909731
25.0155
0.0131781
0.00183907
25.0222
0.0364182
0.00283562
25.0261
0.0607625
0.00394962
25.0253
0.090387
0.00521369
25.0294
0.119365
0.00637548
25.0409
0.15947
0.00810018
25.0683
0.21723
0.0093531
6.27529
0.305796
0.00991491
6.28762
6.27657
6.29084
-0.00107543
-0.107375
6.28242
0.0996373
0.00169302
-0.000166228
-0.0434096
-1.57746
1.57905
0.0417687
0.00022112
0.000383586
-0.0803304
-1.599
1.61526
0.0639883
-0.000322389
0.00214772
-0.0269968
-1.70993
1.74786
0.060348
-7.15542e-05
-0.0226892
-0.0278888
-0.0228391
0.00295061
0.108055
-1.71042
1.67984
-0.077117
-0.00338238
0.105738
-1.60918
0.00398472
1.59794
-0.0931943
-0.00532198
0.0050313
0.0749441
-1.58285
-0.00662884
1.58072
-0.0712107
0.00576403
0.0551099
-1.57752
1.57605
-0.0518735
-0.0075233
0.00618073
0.0570075
-1.57524
1.57381
-0.0537054
-0.00805476
0.00643919
0.0511642
-1.57302
1.57239
-0.0485959
-0.00837842
0.00659429
0.0474549
-1.5697
1.57005
-0.0458399
-0.00855725
-1.5704
0.0273853
0.182135
6.2762
-0.158374
-0.044472
-1.57043
-1.57074
-1.57131
25.0939
-0.529223
-0.261123
-6.27896
-6.27101
-6.28504
-6.27683
25.0932
-0.519135
-0.260686
25.0888
-0.505694
-0.259083
25.084
-0.496836
-0.25793
25.0791
-0.489478
-0.256935
25.0751
-0.484481
-0.256024
25.0716
-0.480724
-0.255315
25.0685
-0.478266
-0.254889
25.0661
-0.476873
-0.254762
25.0639
-0.476073
-0.254916
25.0622
-0.476096
-0.25533
25.0613
-0.476796
-0.256193
25.0605
-0.477612
-0.256773
25.0598
-0.477827
-0.257748
25.0598
-0.478609
-0.25888
25.0603
-0.478541
-0.260286
25.0612
-0.477856
-0.262083
25.0628
-0.475922
-0.264405
-0.473185
-0.267166
25.0071
-0.00708615
0.000595585
25.0173
0.00238908
0.00115356
25.0316
0.0213925
0.00167417
25.0401
0.0513701
0.00210972
25.0577
0.0718005
0.0023739
25.081
0.0951961
0.00229083
25.1185
0.121569
0.00151671
25.1831
0.153164
-0.000604543
6.32923
0.193113
-0.00525334
6.31856
6.33348
6.31733
-0.0846369
0.00119618
6.34732
0.067218
-0.00184426
-0.0324851
0.00304979
6.42025
0.0854555
-0.00438097
-0.0303996
-0.0325729
-0.0293308
-6.3796
-0.0288369
0.00646195
6.48976
0.0793442
-0.00923116
-0.028396
-0.0276524
-0.0304406
-6.45105
-0.00948175
0.0112184
-6.53748
6.49683
-0.0584578
-0.0167775
0.0624857
-0.0105052
0.0620299
0.0346078
0.0172009
-6.49015
6.47244
-0.143729
-0.02587
0.0510317
0.0340265
0.0503544
0.0579939
-6.4493
0.0222538
6.40612
-0.182944
-0.0335388
0.05725
0.0614812
0.0606971
0.0560034
0.0256698
-6.36628
6.33864
-0.177784
-0.0387138
0.0541411
0.0550713
0.0532734
0.0459825
0.0281048
-6.32476
6.31751
-0.160008
-0.0423494
0.0453995
0.0452526
0.0448126
0.044791
0.0297758
-6.31301
6.30487
-0.155825
-0.0448155
0.0452888
0.0441651
0.0446713
0.043937
0.0307666
-6.29607
6.28713
-0.1452
-0.0463522
0.0414182
0.0434142
0.0409035
0.03886
0.0313608
-6.27984
6.27228
-0.127806
-0.0472747
0.035868
0.0394082
0.0371199
0.138493
-6.27113
0.0317865
6.2718
-0.123037
-0.047919
25.0741
-0.387106
-0.265338
-6.27053
-6.2684
-6.27105
-6.2681
25.0689
-0.377318
-0.26396
25.0662
-0.367915
-0.262319
25.064
-0.360582
-0.261103
25.0628
-0.355251
-0.259869
25.0615
-0.351044
-0.258601
25.0607
-0.348454
-0.257402
25.0602
-0.346818
-0.256347
25.0596
-0.345479
-0.255479
25.0595
-0.345263
-0.254813
25.0592
-0.345004
-0.254323