/*--------------------------------*- C++ -*----------------------------------*\
| =========                 |                                                 |
| \\      /  F ield         | OpenFOAM: The Open Source CFD Toolbox           |
|  \\    /   O peration     | Version:  2306                                  |
|   \\  /    A nd           | Website:  www.openfoam.com                      |
|    \\/     M anipulation  |                                                 |
\*---------------------------------------------------------------------------*/
FoamFile
{
    version     2.0;
    format      ascii;
    arch        "LSB;label=32;scalar=64";
    class       volVectorField;
    location    "0.3";
    object      U;
}
// * * * * * * * * * * * * * * * * * * * * * * * * * * * * * * * * * * * * * //

dimensions      [0 1 -1 0 0 0 0];

internalField   nonuniform List<vector> 
111542
(
(99.9932 0.00584569 0.00242816)
(99.9706 0.0118254 0.00519913)
(99.9287 0.017893 0.00836858)
(99.8664 0.02419 0.0123523)
(99.7824 0.0304589 0.0175017)
(99.675 0.0359247 0.0242459)
(99.5433 0.0387281 0.0328467)
(99.3898 0.0358998 0.0438117)
(99.2239 0.0227995 0.0576739)
(99.0659 -0.00698439 0.0745149)
(98.9487 -0.0591151 0.0938795)
(98.9127 -0.131268 0.114952)
(98.984 -0.205281 0.136915)
(99.1525 -0.261405 0.157819)
(99.3729 -0.288958 0.176188)
(99.5957 -0.297666 0.191669)
(99.7935 -0.296599 0.204087)
(99.959 -0.290422 0.213734)
(100.093 -0.281958 0.220863)
(100.2 -0.273109 0.225954)
(100.283 -0.265139 0.229224)
(100.346 -0.258332 0.23124)
(100.394 -0.252575 0.232661)
(100.432 -0.248321 0.23361)
(100.462 -0.245401 0.234382)
(100.486 -0.243359 0.23535)
(100.507 -0.242293 0.236389)
(100.523 -0.242047 0.237554)
(100.536 -0.242278 0.238984)
(100.545 -0.242829 0.240619)
(100.553 -0.243633 0.242336)
(100.558 -0.244702 0.243974)
(100.561 -0.245855 0.24559)
(100.563 -0.24705 0.24712)
(100.564 -0.248299 0.248469)
(100.565 -0.249631 0.249549)
(100.566 -0.251114 0.250237)
(100.569 -0.25262 0.250634)
(100.574 -0.254175 0.250739)
(100.584 -0.255992 0.250576)
(99.9935 0.0174011 0.0023877)
(99.9713 0.0351372 0.00504882)
(99.93 0.0535287 0.00820647)
(99.8682 0.0729202 0.0121705)
(99.7836 0.0927142 0.0172865)
(99.673 0.110834 0.0239769)
(99.5332 0.12237 0.0326945)
(99.3641 0.118517 0.0439791)
(99.1717 0.0846575 0.0583412)
(98.975 -0.000245654 0.0759815)
(98.8151 -0.153498 0.096717)
(98.7581 -0.368563 0.118665)
(98.8481 -0.592912 0.142146)
(99.0626 -0.754337 0.164545)
(99.3279 -0.834189 0.183888)
(99.5787 -0.862695 0.199766)
(99.7908 -0.862458 0.212445)
(99.9629 -0.846751 0.222253)
(100.099 -0.824381 0.229495)
(100.205 -0.800217 0.234569)
(100.285 -0.777318 0.237911)
(100.345 -0.758242 0.240146)
(100.39 -0.743523 0.241781)
(100.425 -0.732892 0.243128)
(100.452 -0.724322 0.244436)
(100.475 -0.716612 0.245894)
(100.493 -0.710177 0.247535)
(100.509 -0.705188 0.249353)
(100.521 -0.701374 0.25131)
(100.53 -0.6986 0.253316)
(100.538 -0.696855 0.255264)
(100.542 -0.69617 0.257063)
(100.545 -0.696328 0.258672)
(100.547 -0.697255 0.26005)
(100.548 -0.698936 0.261151)
(100.548 -0.70137 0.261947)
(100.549 -0.704584 0.262412)
(100.551 -0.70836 0.262572)
(100.554 -0.712624 0.262455)
(100.562 -0.717363 0.262179)
(99.9939 0.0284864 0.00228132)
(99.9728 0.0576113 0.00482108)
(99.9332 0.0885642 0.0078639)
(99.8729 0.12215 0.0117004)
(99.7883 0.158083 0.0166887)
(99.6732 0.194032 0.0232949)
(99.5202 0.223692 0.0320865)
(99.322 0.233445 0.0437375)
(99.076 0.196678 0.0589706)
(98.7994 0.0650244 0.0783667)
(98.5519 -0.270023 0.102187)
(98.4449 -0.732251 0.129538)
(98.5735 -1.14938 0.154637)
(98.8831 -1.38631 0.178002)
(99.23 -1.48117 0.197441)
(99.5289 -1.50839 0.213044)
(99.7678 -1.4933 0.225564)
(99.9529 -1.45793 0.235322)
(100.093 -1.41587 0.242532)
(100.198 -1.37285 0.24749)
(100.274 -1.3333 0.250549)
(100.327 -1.29702 0.252601)
(100.366 -1.2753 0.254436)
(100.396 -1.26628 0.256533)
(100.423 -1.26179 0.259018)
(100.445 -1.25807 0.261849)
(100.462 -1.25473 0.264901)
(100.476 -1.25183 0.268)
(100.486 -1.24924 0.270959)
(100.493 -1.24697 0.273617)
(100.498 -1.24518 0.275849)
(100.5 -1.24403 0.277588)
(100.5 -1.24363 0.278824)
(100.498 -1.24407 0.279594)
(100.495 -1.24544 0.279952)
(100.49 -1.24782 0.279972)
(100.486 -1.25126 0.279715)
(100.483 -1.2557 0.279252)
(100.481 -1.26096 0.278677)
(100.482 -1.2665 0.27822)
(99.9945 0.0385835 0.00211427)
(99.9756 0.0784002 0.00446937)
(99.9397 0.121706 0.00729767)
(99.8837 0.170464 0.0108829)
(99.8024 0.225821 0.0155879)
(99.6863 0.287228 0.0219037)
(99.5213 0.350433 0.0304829)
(99.2868 0.402858 0.0421559)
(98.9542 0.414814 0.0579417)
(98.46 0.212685 0.0790285)
(98.2053 0.0326171 0.0855909)
(97.8651 -0.622885 0.100807)
(97.9372 -1.42199 0.113908)
(98.4215 -1.92981 0.124539)
(98.925 -2.07213 0.134595)
(99.3147 -2.09928 0.141732)
(99.6237 -2.06373 0.147579)
(99.8533 -1.99796 0.152498)
(100.02 -1.92684 0.156504)
(100.143 -1.86197 0.159633)
(100.299 -1.92161 0.261584)
(100.334 -1.85056 0.264189)
(100.344 -1.80157 0.267009)
(100.351 -1.77406 0.271022)
(100.362 -1.75753 0.27608)
(100.372 -1.7477 0.281613)
(100.376 -1.74251 0.287046)
(100.376 -1.74013 0.291932)
(100.372 -1.73926 0.295968)
(100.363 -1.73929 0.298985)
(100.35 -1.73996 0.300937)
(100.333 -1.74128 0.301889)
(100.313 -1.74329 0.301984)
(100.29 -1.74614 0.301412)
(100.264 -1.74993 0.300376)
(100.236 -1.75486 0.299059)
(100.207 -1.76111 0.297595)
(100.178 -1.76883 0.296083)
(100.15 -1.77797 0.294617)
(100.119 -1.78742 0.293476)
(99.9956 0.0469268 0.00188512)
(99.9803 0.0958513 0.00398245)
(99.9508 0.15033 0.00649212)
(99.9038 0.214053 0.00967026)
(99.8329 0.29075 0.013854)
(99.7268 0.384067 0.019503)
(99.5659 0.496722 0.0272551)
(99.3177 0.627269 0.0379478)
(98.8778 0.762193 0.0526558)
(98.5358 0.767776 0.0579647)
(97.7293 0.376191 0.0711885)
(96.9348 -0.690039 0.0877999)
(97.0418 -2.33383 0.100404)
(98.1776 -2.91738 0.107366)
(98.8997 -2.92073 0.113922)
(99.3538 -2.86774 0.116739)
(99.6995 -2.7535 0.121144)
(99.928 -2.63066 0.127572)
(100.079 -2.5205 0.134923)
(100.175 -2.43182 0.142501)
(100.239 -2.3899 0.154479)
(100.164 -2.50556 0.274878)
(100.036 -2.50077 0.27849)
(99.9152 -2.4828 0.283676)
(99.8088 -2.45969 0.289687)
(99.7084 -2.43865 0.295451)
(99.6117 -2.42015 0.300031)
(99.519 -2.40288 0.302854)
(99.4302 -2.38625 0.303717)
(99.3447 -2.37034 0.302707)
(99.262 -2.35546 0.300103)
(99.1818 -2.34198 0.296297)
(99.1039 -2.33029 0.291706)
(99.0281 -2.32071 0.286709)
(98.9543 -2.31355 0.28161)
(98.8826 -2.30907 0.276602)
(98.8133 -2.30755 0.271746)
(98.7471 -2.30947 0.267008)
(98.6862 -2.31581 0.262322)
(98.6247 -2.32915 0.257797)
(99.9971 0.0525708 0.00159759)
(99.987 0.107903 0.00336552)
(99.9672 0.170807 0.00545358)
(99.9349 0.246818 0.0080623)
(99.8845 0.342741 0.0114551)
(99.8055 0.467839 0.0159835)
(99.6789 0.635681 0.0221237)
(99.4678 0.86641 0.0304697)
(99.0485 1.19119 0.0417164)
(98.6403 1.35077 0.0460885)
(97.6891 1.48768 0.04415)
(95.592 0.711908 0.0403596)
(94.4191 -3.42787 0.0537162)
(98.2629 -4.6797 0.0392593)
(98.7954 -3.77298 0.0472833)
(99.3192 -3.67506 0.08688)
(99.6721 -3.47506 0.117704)
(99.8047 -3.2881 0.129295)
(99.8103 -3.14623 0.124114)
(99.7219 -3.01639 0.11144)
(98.5801 -2.79064 0.241883)
(95.2677 -2.35826 0.19351)
(95.3212 -2.4552 0.190362)
(95.3834 -2.51576 0.186077)
(95.4266 -2.55624 0.179315)
(95.4565 -2.58696 0.17019)
(95.4828 -2.60966 0.159323)
(95.51 -2.62427 0.147524)
(95.5396 -2.63151 0.135636)
(95.5723 -2.63274 0.124367)
(95.6084 -2.62955 0.114191)
(95.6481 -2.62353 0.105306)
(95.6912 -2.6162 0.0976503)
(95.7374 -2.60887 0.0909792)
(95.7863 -2.60263 0.0849238)
(95.8376 -2.5983 0.079051)
(95.8909 -2.59649 0.0729141)
(95.9458 -2.59781 0.0660993)
(96.0011 -2.60333 0.0583423)
(96.0647 -2.61576 0.0500628)
(99.999 0.0545649 0.00129591)
(99.9954 0.112424 0.00267164)
(99.9881 0.179195 0.00424703)
(99.9756 0.261676 0.00615282)
(99.9553 0.368869 0.00853469)
(99.9223 0.514337 0.0115667)
(99.8681 0.72009 0.015432)
(99.7781 1.02462 0.0202418)
(99.6036 1.50117 0.0258587)
(99.3345 1.89922 0.0280823)
(98.6133 2.82996 0.0250902)
(95.4761 5.81107 0.0174902)
(77.157 -4.30216 0.0292077)
(102.824 -10.2939 0.0212279)
(57.0649 -5.07108 -0.713782)
(76.3667 -4.71269 -0.177034)
(80.6918 -4.0672 -0.0982051)
(83.7037 -3.78464 -0.0992187)
(86.0062 -3.62855 -0.123717)
(87.8652 -3.55975 -0.108135)
(92.817 -3.72138 -0.252217)
(96.0111 -3.2786 -0.281969)
(96.1911 -3.1708 -0.28793)
(96.3867 -3.09314 -0.291826)
(96.5543 -3.0349 -0.293598)
(96.6966 -2.98789 -0.292854)
(96.8209 -2.94842 -0.289264)
(96.9297 -2.91442 -0.283034)
(97.0239 -2.88445 -0.274784)
(97.1051 -2.85751 -0.265321)
(97.1759 -2.83303 -0.255491)
(97.239 -2.81073 -0.246072)
(97.2971 -2.7905 -0.237713)
(97.3525 -2.77227 -0.230894)
(97.4074 -2.75598 -0.225925)
(97.4632 -2.74153 -0.22297)
(97.5213 -2.7287 -0.222105)
(97.5822 -2.71714 -0.223326)
(97.6458 -2.70601 -0.226558)
(97.7273 -2.69283 -0.231502)
(100.001 0.0525193 0.00100804)
(100.005 0.10824 0.00198174)
(100.011 0.17301 0.00301564)
(100.021 0.253794 0.00415797)
(100.035 0.359801 0.00542686)
(100.055 0.504695 0.00679256)
(100.089 0.709933 0.00811461)
(100.15 1.01134 0.00899472)
(100.292 1.47113 0.00851282)
(100.339 1.88083 0.00822943)
(100.608 2.86346 0.00391571)
(102.413 5.38487 -0.00618826)
(111.081 3.91048 -0.0384245)
(109.038 -6.52276 0.0357947)
(102.83 -6.64165 -0.0211015)
(101.14 -4.87862 -0.0534887)
(100.676 -3.90261 -0.0620331)
(100.498 -3.37158 -0.060622)
(100.415 -3.06953 -0.0576402)
(100.354 -2.90134 -0.0567441)
(100.268 -2.69187 -0.143194)
(100.3 -2.27541 -0.255427)
(100.288 -2.17567 -0.260457)
(100.28 -2.11854 -0.264626)
(100.274 -2.08684 -0.268724)
(100.266 -2.06673 -0.272632)
(100.257 -2.053 -0.275883)
(100.249 -2.04392 -0.278189)
(100.242 -2.03842 -0.279461)
(100.234 -2.03561 -0.279734)
(100.228 -2.03484 -0.279139)
(100.221 -2.03563 -0.277887)
(100.215 -2.03757 -0.276238)
(100.21 -2.04027 -0.274468)
(100.207 -2.04331 -0.272851)
(100.204 -2.04625 -0.271647)
(100.203 -2.04862 -0.271107)
(100.204 -2.04976 -0.271455)
(100.209 -2.04855 -0.272859)
(100.221 -2.04266 -0.275248)
(100.003 0.0460636 0.000606458)
(100.013 0.0949553 0.00120834)
(100.032 0.151835 0.00175638)
(100.062 0.222687 0.00219078)
(100.107 0.315063 0.00242084)
(100.175 0.439182 0.00225148)
(100.278 0.609272 0.00129051)
(100.445 0.84489 -0.00119208)
(100.76 1.17061 -0.00653531)
(100.983 1.41021 -0.00866425)
(101.83 1.86864 -0.0162051)
(103.438 1.78038 -0.0301589)
(105.221 -0.208056 -0.0458215)
(104.782 -2.78104 -0.0221951)
(102.991 -3.51394 -0.0385674)
(101.765 -3.30874 -0.0551547)
(101.127 -2.96344 -0.066918)
(100.786 -2.66955 -0.0753801)
(100.591 -2.4489 -0.0817932)
(100.466 -2.2847 -0.0870179)
(100.38 -2.15383 -0.0923971)
(100.291 -1.86944 -0.250063)
(100.265 -1.83092 -0.251067)
(100.249 -1.80263 -0.252098)
(100.241 -1.78341 -0.253473)
(100.235 -1.7696 -0.254999)
(100.231 -1.75903 -0.256363)
(100.227 -1.75102 -0.257359)
(100.224 -1.74509 -0.257893)
(100.221 -1.7407 -0.257947)
(100.218 -1.73733 -0.257565)
(100.215 -1.73455 -0.256839)
(100.213 -1.73198 -0.255896)
(100.211 -1.72931 -0.254881)
(100.21 -1.72619 -0.253946)
(100.21 -1.72235 -0.253245)
(100.212 -1.7175 -0.252932)
(100.216 -1.71131 -0.253159)
(100.223 -1.70359 -0.254074)
(100.242 -1.69456 -0.255849)
(100.004 0.0356959 0.00038193)
(100.02 0.0736831 0.000686209)
(100.049 0.117732 0.000801238)
(100.096 0.172185 0.000626718)
(100.164 0.242106 7.34565e-06)
(100.264 0.333368 -0.00138051)
(100.41 0.452292 -0.00405284)
(100.629 0.603396 -0.00887103)
(100.962 0.782979 -0.0172202)
(101.446 0.86748 -0.0308379)
(102.084 0.771235 -0.0513333)
(102.759 0.245222 -0.0793938)
(103.117 -0.742141 -0.110679)
(102.871 -1.57634 -0.1396)
(102.226 -1.88893 -0.170034)
(101.59 -1.89902 -0.195592)
(101.14 -1.81565 -0.213717)
(100.849 -1.71159 -0.2258)
(100.658 -1.61156 -0.233663)
(100.526 -1.52185 -0.238551)
(100.438 -1.44287 -0.241292)
(100.381 -1.37129 -0.242475)
(100.344 -1.31332 -0.242879)
(100.319 -1.26622 -0.243079)
(100.301 -1.2292 -0.243318)
(100.288 -1.2007 -0.243699)
(100.278 -1.1788 -0.244265)
(100.269 -1.16216 -0.245008)
(100.261 -1.14978 -0.245893)
(100.254 -1.14084 -0.246871)
(100.248 -1.13459 -0.247894)
(100.242 -1.13039 -0.248923)
(100.236 -1.12769 -0.249935)
(100.231 -1.12595 -0.250919)
(100.228 -1.12467 -0.251889)
(100.226 -1.12343 -0.252876)
(100.225 -1.12187 -0.253933)
(100.228 -1.11967 -0.255134)
(100.233 -1.11671 -0.256578)
(100.243 -1.11321 -0.258385)
(100.006 0.0226291 0.00019209)
(100.025 0.0465844 0.000245493)
(100.061 0.0743341 4.92179e-05)
(100.118 0.10823 -0.000536426)
(100.201 0.151182 -0.00174187)
(100.319 0.205623 -0.00391217)
(100.483 0.27305 -0.00760596)
(100.711 0.351 -0.0136131)
(101.02 0.426584 -0.0230245)
(101.42 0.460598 -0.037078)
(101.883 0.396944 -0.0568714)
(102.311 0.160657 -0.0828265)
(102.532 -0.259306 -0.112813)
(102.414 -0.690217 -0.142642)
(102.022 -0.937857 -0.170613)
(101.56 -1.00061 -0.193812)
(101.179 -0.973813 -0.211227)
(100.905 -0.920435 -0.223273)
(100.712 -0.864264 -0.231228)
(100.572 -0.812135 -0.23615)
(100.47 -0.766802 -0.238842)
(100.397 -0.731218 -0.239957)
(100.345 -0.705724 -0.24013)
(100.308 -0.68825 -0.239802)
(100.281 -0.676914 -0.239286)
(100.261 -0.670351 -0.238795)
(100.247 -0.667288 -0.238462)
(100.235 -0.666702 -0.238341)
(100.226 -0.667876 -0.238436)
(100.219 -0.670278 -0.238723)
(100.213 -0.673444 -0.239166)
(100.208 -0.676995 -0.239722)
(100.204 -0.680602 -0.240346)
(100.201 -0.684033 -0.241004)
(100.2 -0.686794 -0.241707)
(100.2 -0.688845 -0.242427)
(100.202 -0.690067 -0.243174)
(100.207 -0.690354 -0.243997)
(100.215 -0.689699 -0.244995)
(100.232 -0.688098 -0.246395)
(100.006 0.0077482 7.95662e-05)
(100.027 0.0158993 4.14506e-05)
(100.067 0.0253778 -0.000351914)
(100.129 0.0368177 -0.00109221)
(100.219 0.051264 -0.00260424)
(100.344 0.0692759 -0.00516414)
(100.514 0.0908653 -0.00936827)
(100.741 0.114558 -0.0158922)
(101.032 0.135244 -0.0258236)
(101.381 0.140297 -0.0399048)
(101.752 0.109786 -0.0588528)
(102.072 0.0230724 -0.0826974)
(102.234 -0.116628 -0.110074)
(102.165 -0.26196 -0.138308)
(101.887 -0.355178 -0.164176)
(101.522 -0.384985 -0.186062)
(101.185 -0.37995 -0.203092)
(100.923 -0.364561 -0.215111)
(100.729 -0.348018 -0.223121)
(100.585 -0.3326 -0.228066)
(100.478 -0.319045 -0.23077)
(100.401 -0.307862 -0.231889)
(100.346 -0.298619 -0.231979)
(100.306 -0.290695 -0.231424)
(100.279 -0.283503 -0.230689)
(100.259 -0.27683 -0.230017)
(100.244 -0.270559 -0.229548)
(100.232 -0.264622 -0.229358)
(100.223 -0.259012 -0.229475)
(100.216 -0.253753 -0.229887)
(100.209 -0.248862 -0.230554)
(100.204 -0.244342 -0.231415)
(100.199 -0.240193 -0.232395)
(100.196 -0.236434 -0.233384)
(100.194 -0.232819 -0.234539)
(100.194 -0.229425 -0.235696)
(100.195 -0.226248 -0.236813)
(100.199 -0.223268 -0.237926)
(100.206 -0.220592 -0.239123)
(100.218 -0.21873 -0.240638)
(99.9935 0.00580562 0.00716933)
(99.9713 0.011676 0.0151817)
(99.9304 0.0177331 0.0245567)
(99.8697 0.024013 0.0362987)
(99.7882 0.0302506 0.0514037)
(99.6837 0.0356677 0.0710549)
(99.5558 0.038591 0.096315)
(99.4068 0.0360823 0.128616)
(99.2459 0.0234811 0.169294)
(99.0922 -0.00552641 0.218712)
(98.9779 -0.0563849 0.276096)
(98.9431 -0.127626 0.338967)
(99.0127 -0.199799 0.403564)
(99.177 -0.254065 0.464685)
(99.3926 -0.280508 0.518169)
(99.6117 -0.288677 0.5628)
(99.8074 -0.28726 0.598455)
(99.9724 -0.280871 0.625938)
(100.107 -0.272279 0.646142)
(100.215 -0.263487 0.660331)
(100.298 -0.255413 0.669552)
(100.362 -0.248376 0.675338)
(100.411 -0.242404 0.679185)
(100.448 -0.237755 0.681639)
(100.476 -0.234295 0.683222)
(100.498 -0.231764 0.684507)
(100.516 -0.230088 0.685495)
(100.529 -0.22918 0.686438)
(100.538 -0.228877 0.687669)
(100.545 -0.229048 0.689241)
(100.549 -0.229605 0.691085)
(100.551 -0.230491 0.693075)
(100.552 -0.231633 0.695302)
(100.552 -0.232969 0.697668)
(100.551 -0.234454 0.699979)
(100.552 -0.236063 0.702022)
(100.553 -0.237767 0.703524)
(100.556 -0.239516 0.704453)
(100.561 -0.241312 0.704622)
(100.573 -0.243264 0.703833)
(99.9937 0.0172554 0.00702678)
(99.972 0.0347622 0.0148173)
(99.9318 0.0530304 0.0240829)
(99.8716 0.07228 0.0357104)
(99.7895 0.0919216 0.05071)
(99.6821 0.109925 0.0703193)
(99.5465 0.121676 0.0959326)
(99.3824 0.118531 0.129173)
(99.1957 0.0860464 0.171584)
(99.0045 0.00364765 0.22404)
(98.8481 -0.145497 0.286119)
(98.7933 -0.354088 0.354728)
(98.8824 -0.574188 0.425551)
(99.0918 -0.733928 0.491642)
(99.351 -0.812405 0.547825)
(99.597 -0.840481 0.593547)
(99.8062 -0.839926 0.629709)
(99.9769 -0.823994 0.657362)
(100.113 -0.801542 0.677538)
(100.218 -0.77755 0.691451)
(100.298 -0.75491 0.700485)
(100.358 -0.735894 0.70658)
(100.403 -0.720886 0.710971)
(100.436 -0.709236 0.714041)
(100.463 -0.699078 0.71609)
(100.484 -0.689608 0.717552)
(100.5 -0.681237 0.718767)
(100.513 -0.674373 0.72001)
(100.523 -0.669059 0.721465)
(100.53 -0.665275 0.723188)
(100.534 -0.663018 0.725166)
(100.537 -0.662244 0.727356)
(100.538 -0.662796 0.729728)
(100.538 -0.664523 0.732187)
(100.538 -0.667265 0.734575)
(100.538 -0.670849 0.736706)
(100.538 -0.675132 0.738371)
(100.54 -0.679921 0.739397)
(100.544 -0.685025 0.739595)
(100.553 -0.690238 0.738837)
(99.994 0.0282143 0.00670966)
(99.9735 0.0570365 0.0141548)
(99.935 0.0876656 0.0230688)
(99.8764 0.120882 0.0343199)
(99.7943 0.156418 0.0489697)
(99.6828 0.19203 0.0683919)
(99.5345 0.221607 0.0942977)
(99.3424 0.231822 0.128756)
(99.1037 0.196541 0.174005)
(98.8352 0.0681793 0.231913)
(98.5952 -0.259541 0.302854)
(98.4903 -0.712423 0.383381)
(98.6142 -1.12196 0.463686)
(98.9159 -1.35654 0.53597)
(99.2546 -1.45152 0.594422)
(99.548 -1.47914 0.640678)
(99.784 -1.46384 0.677139)
(99.9673 -1.42789 0.704989)
(100.106 -1.38503 0.725097)
(100.208 -1.34131 0.738533)
(100.283 -1.30186 0.746525)
(100.335 -1.26657 0.752296)
(100.373 -1.24484 0.757441)
(100.403 -1.23404 0.761726)
(100.429 -1.22637 0.764831)
(100.45 -1.21881 0.766932)
(100.467 -1.21162 0.768396)
(100.479 -1.20539 0.769518)
(100.487 -1.20034 0.7705)
(100.493 -1.19667 0.771479)
(100.496 -1.19454 0.772543)
(100.496 -1.19405 0.773754)
(100.494 -1.19516 0.775135)
(100.491 -1.19771 0.776658)
(100.486 -1.20151 0.77823)
(100.481 -1.20637 0.779689)
(100.477 -1.21209 0.780818)
(100.473 -1.21845 0.781375)
(100.471 -1.22512 0.781158)
(100.474 -1.23134 0.78019)
(99.9947 0.0381898 0.00621373)
(99.9763 0.0775686 0.0131161)
(99.9414 0.120349 0.0214047)
(99.8872 0.168461 0.03193)
(99.8084 0.223034 0.0457786)
(99.696 0.283539 0.0644186)
(99.5361 0.345796 0.0898411)
(99.3086 0.397413 0.124645)
(98.9853 0.409044 0.172103)
(98.5032 0.209943 0.236037)
(98.2494 0.0268974 0.268066)
(97.9155 -0.631801 0.342025)
(97.988 -1.42769 0.418613)
(98.4663 -1.94111 0.487073)
(98.959 -2.08982 0.539329)
(99.3425 -2.12327 0.578922)
(99.6482 -2.0902 0.611161)
(99.8753 -2.02405 0.637191)
(100.039 -1.95077 0.657005)
(100.158 -1.88245 0.67103)
(100.295 -1.91421 0.799392)
(100.328 -1.84634 0.806393)
(100.339 -1.79705 0.811946)
(100.35 -1.76537 0.816652)
(100.364 -1.74191 0.820622)
(100.377 -1.72391 0.823846)
(100.383 -1.71081 0.826375)
(100.384 -1.70195 0.828299)
(100.38 -1.69679 0.829707)
(100.371 -1.69505 0.830673)
(100.356 -1.69646 0.831286)
(100.336 -1.70069 0.831649)
(100.312 -1.70725 0.831855)
(100.284 -1.71558 0.831958)
(100.253 -1.72512 0.831945)
(100.22 -1.73539 0.831716)
(100.187 -1.74601 0.831055)
(100.154 -1.75678 0.829651)
(100.124 -1.76743 0.827165)
(100.093 -1.77669 0.8234)
(99.9957 0.0464135 0.0055334)
(99.981 0.094757 0.0116784)
(99.9524 0.148504 0.0190401)
(99.907 0.211265 0.0283883)
(99.8385 0.286676 0.0407413)
(99.7358 0.378266 0.0575074)
(99.5798 0.488598 0.0806767)
(99.3385 0.616033 0.112967)
(98.9087 0.746747 0.157975)
(98.5695 0.747163 0.183451)
(97.7741 0.353893 0.247895)
(96.9893 -0.709399 0.330018)
(97.0973 -2.34087 0.419061)
(98.2174 -2.93264 0.489949)
(98.9202 -2.95113 0.531066)
(99.3691 -2.91273 0.557722)
(99.7154 -2.80375 0.583833)
(99.9432 -2.67969 0.608834)
(100.091 -2.5651 0.62944)
(100.181 -2.46994 0.64486)
(100.235 -2.42392 0.653851)
(100.117 -2.56771 0.791505)
(99.9924 -2.55569 0.795193)
(99.8813 -2.52476 0.79366)
(99.7881 -2.48691 0.789656)
(99.7022 -2.45181 0.784064)
(99.6188 -2.42181 0.776975)
(99.5364 -2.39685 0.768504)
(99.4535 -2.37698 0.758882)
(99.3687 -2.36233 0.748409)
(99.2814 -2.35271 0.737455)
(99.1918 -2.34763 0.726425)
(99.1008 -2.34632 0.715707)
(99.0096 -2.34789 0.705613)
(98.9196 -2.35143 0.696313)
(98.8321 -2.35611 0.687786)
(98.7486 -2.36137 0.679751)
(98.6709 -2.36712 0.671686)
(98.602 -2.37407 0.662914)
(98.5368 -2.38446 0.653059)
(99.9972 0.0519846 0.00466735)
(99.9876 0.106602 0.00984505)
(99.9686 0.16858 0.0159754)
(99.9376 0.243331 0.0236663)
(99.8891 0.337476 0.0337287)
(99.8129 0.460011 0.0472715)
(99.69 0.624077 0.0658324)
(99.4841 0.849152 0.0914955)
(99.0717 1.16528 0.12694)
(98.6658 1.32076 0.148016)
(97.72 1.45097 0.176873)
(95.636 0.666938 0.229895)
(94.4755 -3.46649 0.321989)
(98.3184 -4.70378 0.403698)
(98.8164 -3.84125 0.432796)
(99.3433 -3.80772 0.463237)
(99.7024 -3.62193 0.497019)
(99.8263 -3.4175 0.522881)
(99.8123 -3.24966 0.518734)
(99.7103 -3.08993 0.481763)
(98.5026 -2.84069 0.508079)
(95.0159 -2.4809 0.400734)
(95.0513 -2.54165 0.404264)
(95.1208 -2.56012 0.401801)
(95.1895 -2.5595 0.396857)
(95.2556 -2.55498 0.391176)
(95.3219 -2.55142 0.385146)
(95.3877 -2.55065 0.378696)
(95.4512 -2.55397 0.371642)
(95.5111 -2.562 0.363815)
(95.5674 -2.5745 0.355118)
(95.6206 -2.59051 0.345578)
(95.6714 -2.6087 0.335258)
(95.7206 -2.62757 0.3243)
(95.7688 -2.64571 0.312831)
(95.8163 -2.66192 0.300875)
(95.8635 -2.67543 0.288246)
(95.9104 -2.68604 0.274461)
(95.9566 -2.69464 0.258651)
(96.0126 -2.70436 0.23961)
(99.999 0.0539609 0.00377846)
(99.9958 0.111033 0.00780529)
(99.989 0.176756 0.0124392)
(99.9775 0.257781 0.0180707)
(99.9584 0.362867 0.0251652)
(99.927 0.505209 0.0343014)
(99.8748 0.706213 0.0461669)
(99.7868 1.00345 0.0613796)
(99.6135 1.46857 0.0800297)
(99.3447 1.8602 0.0909588)
(98.6222 2.77751 0.10177)
(95.4676 5.7145 0.112866)
(77.3276 -4.62447 0.197148)
(51.2767 -3.40329 -2.78641)
(74.1648 -4.27866 -1.25915)
(79.6199 -3.96688 -0.953846)
(83.6043 -3.99501 -0.651421)
(86.4809 -3.99266 -0.393959)
(88.4475 -3.9142 -0.204891)
(92.9352 -3.76997 -0.444199)
(96.3032 -3.36671 -0.659464)
(96.4334 -3.23957 -0.665078)
(96.5544 -3.14304 -0.661853)
(96.637 -3.06775 -0.652877)
(96.6976 -3.00706 -0.639342)
(96.7537 -2.9584 -0.62211)
(96.8139 -2.9205 -0.602369)
(96.8818 -2.89212 -0.58139)
(96.9585 -2.8719 -0.56033)
(97.0438 -2.85829 -0.540208)
(97.136 -2.84968 -0.521892)
(97.2326 -2.84447 -0.506053)
(97.3309 -2.84116 -0.493174)
(97.4279 -2.83844 -0.483548)
(97.5214 -2.83524 -0.477334)
(97.6095 -2.83074 -0.474694)
(97.6907 -2.82421 -0.475867)
(97.7643 -2.81483 -0.481332)
(97.8444 -2.80077 -0.491686)
(100.001 0.0518132 0.00280897)
(100.005 0.10677 0.00565465)
(100.011 0.170519 0.00871581)
(100.021 0.249845 0.0121218)
(100.036 0.35372 0.0159486)
(100.057 0.495426 0.0201656)
(100.09 0.69587 0.0244501)
(100.15 0.990069 0.0277947)
(100.288 1.43917 0.0276665)
(100.332 1.84278 0.0263253)
(100.593 2.81386 0.0154643)
(102.36 5.32525 -0.0248742)
(110.849 4.14642 -0.0497415)
(109.031 -6.43605 -0.162238)
(102.772 -6.73427 -0.285357)
(101.112 -4.942 -0.374447)
(100.671 -3.95597 -0.429018)
(100.511 -3.41731 -0.45795)
(100.441 -3.10302 -0.471136)
(100.388 -2.91855 -0.477282)
(100.311 -2.73584 -0.568033)
(100.333 -2.33617 -0.742334)
(100.316 -2.22782 -0.747659)
(100.3 -2.16011 -0.746297)
(100.286 -2.11788 -0.742502)
(100.27 -2.0889 -0.737483)
(100.255 -2.06914 -0.731429)
(100.243 -2.05739 -0.724713)
(100.232 -2.05253 -0.717836)
(100.224 -2.05325 -0.711246)
(100.217 -2.05823 -0.705337)
(100.212 -2.06617 -0.700453)
(100.208 -2.07584 -0.696876)
(100.206 -2.08609 -0.694792)
(100.205 -2.09588 -0.694378)
(100.206 -2.10433 -0.695776)
(100.207 -2.11064 -0.699173)
(100.211 -2.11399 -0.70482)
(100.217 -2.11325 -0.713017)
(100.232 -2.10636 -0.723756)
(100.003 0.0454272 0.00177457)
(100.013 0.0936532 0.00351686)
(100.032 0.149618 0.0051199)
(100.062 0.219173 0.00643287)
(100.107 0.309678 0.00718906)
(100.174 0.431044 0.00683811)
(100.275 0.59715 0.00428561)
(100.438 0.827074 -0.00253575)
(100.746 1.14482 -0.0174796)
(100.965 1.38015 -0.0279159)
(101.796 1.83075 -0.0641701)
(103.382 1.73941 -0.131975)
(105.142 -0.227415 -0.226495)
(104.707 -2.78757 -0.331849)
(102.943 -3.53687 -0.422612)
(101.734 -3.3322 -0.491047)
(101.109 -2.9886 -0.53895)
(100.776 -2.69598 -0.570714)
(100.588 -2.47493 -0.591586)
(100.468 -2.30918 -0.605729)
(100.385 -2.17558 -0.61512)
(100.297 -1.87225 -0.769647)
(100.271 -1.83149 -0.768844)
(100.254 -1.80041 -0.76602)
(100.244 -1.7775 -0.762193)
(100.238 -1.75954 -0.757648)
(100.233 -1.74508 -0.752566)
(100.23 -1.73387 -0.747257)
(100.228 -1.72568 -0.742064)
(100.226 -1.72006 -0.737266)
(100.224 -1.71642 -0.733074)
(100.222 -1.7142 -0.729633)
(100.221 -1.71281 -0.727036)
(100.22 -1.71169 -0.725313)
(100.22 -1.71024 -0.724514)
(100.22 -1.70794 -0.724698)
(100.221 -1.70429 -0.725982)
(100.224 -1.69879 -0.72856)
(100.231 -1.69112 -0.732691)
(100.247 -1.68169 -0.738608)
(100.004 0.0352741 0.0010413)
(100.02 0.0727085 0.0018791)
(100.049 0.11602 0.00222778)
(100.095 0.169492 0.0017886)
(100.163 0.237978 5.25908e-05)
(100.261 0.327235 -0.00387796)
(100.404 0.443413 -0.0114954)
(100.617 0.590883 -0.0252764)
(100.942 0.765889 -0.049214)
(101.415 0.848549 -0.0888355)
(102.038 0.75415 -0.14958)
(102.699 0.237921 -0.235052)
(103.049 -0.727993 -0.337452)
(102.806 -1.55029 -0.448159)
(102.175 -1.86042 -0.544812)
(101.554 -1.8694 -0.617289)
(101.115 -1.78618 -0.666892)
(100.832 -1.68304 -0.699174)
(100.644 -1.58371 -0.719417)
(100.515 -1.49419 -0.731173)
(100.428 -1.41528 -0.73672)
(100.373 -1.3439 -0.737611)
(100.337 -1.2858 -0.73689)
(100.312 -1.23785 -0.735318)
(100.295 -1.19929 -0.732942)
(100.284 -1.16898 -0.730079)
(100.275 -1.14548 -0.727171)
(100.268 -1.1277 -0.724565)
(100.262 -1.11478 -0.722484)
(100.257 -1.10591 -0.721057)
(100.253 -1.10028 -0.720349)
(100.248 -1.09714 -0.720369)
(100.244 -1.09578 -0.72109)
(100.24 -1.09553 -0.722449)
(100.237 -1.09574 -0.72441)
(100.235 -1.09586 -0.72695)
(100.235 -1.09537 -0.730094)
(100.236 -1.09386 -0.733927)
(100.24 -1.09116 -0.738577)
(100.249 -1.08753 -0.744085)
(100.006 0.0223255 0.000478018)
(100.025 0.0459514 0.00062455)
(100.061 0.0732268 9.95622e-05)
(100.118 0.106581 -0.00152376)
(100.199 0.148637 -0.00494594)
(100.315 0.201927 -0.0111676)
(100.476 0.267897 -0.0217817)
(100.699 0.344191 -0.0391272)
(101 0.418104 -0.0664155)
(101.39 0.451534 -0.107508)
(101.842 0.389266 -0.166006)
(102.261 0.157373 -0.243229)
(102.477 -0.256288 -0.334819)
(102.363 -0.679653 -0.429689)
(101.979 -0.920745 -0.515377)
(101.529 -0.980469 -0.582926)
(101.156 -0.952823 -0.631465)
(100.888 -0.89964 -0.664478)
(100.697 -0.843879 -0.68596)
(100.558 -0.792069 -0.698931)
(100.456 -0.746955 -0.705622)
(100.384 -0.711509 -0.70789)
(100.332 -0.685868 -0.7077)
(100.295 -0.667786 -0.706015)
(100.27 -0.655621 -0.703364)
(100.252 -0.648149 -0.700256)
(100.24 -0.644203 -0.697155)
(100.232 -0.642841 -0.694385)
(100.226 -0.643414 -0.692138)
(100.221 -0.645425 -0.690512)
(100.218 -0.648413 -0.689536)
(100.216 -0.651974 -0.689185)
(100.215 -0.655724 -0.689396)
(100.213 -0.659335 -0.690091)
(100.213 -0.662452 -0.691243)
(100.213 -0.664844 -0.692774)
(100.215 -0.666294 -0.694669)
(100.219 -0.666668 -0.696999)
(100.225 -0.66594 -0.69992)
(100.239 -0.664241 -0.703702)
(100.006 0.00763482 0.000208478)
(100.027 0.0156963 2.79233e-05)
(100.067 0.024975 -0.000999473)
(100.128 0.0362536 -0.00317287)
(100.216 0.0503515 -0.00746762)
(100.339 0.0679519 -0.0147625)
(100.506 0.0890735 -0.026662)
(100.728 0.11229 -0.0453586)
(101.013 0.132477 -0.073807)
(101.353 0.1375 -0.114751)
(101.717 0.107837 -0.170562)
(102.029 0.0232968 -0.24142)
(102.189 -0.113033 -0.32342)
(102.122 -0.255028 -0.408167)
(101.851 -0.345385 -0.485934)
(101.493 -0.374042 -0.549879)
(101.162 -0.368792 -0.597624)
(100.903 -0.353436 -0.630877)
(100.71 -0.336982 -0.652852)
(100.566 -0.321599 -0.666282)
(100.459 -0.308051 -0.673394)
(100.382 -0.296852 -0.676024)
(100.327 -0.287501 -0.675803)
(100.289 -0.279322 -0.673904)
(100.264 -0.271884 -0.671284)
(100.247 -0.26501 -0.668489)
(100.235 -0.258589 -0.665899)
(100.228 -0.252577 -0.663799)
(100.223 -0.246991 -0.662367)
(100.219 -0.241863 -0.661679)
(100.217 -0.237207 -0.661729)
(100.214 -0.233008 -0.662451)
(100.212 -0.229232 -0.663733)
(100.211 -0.225821 -0.665411)
(100.21 -0.222674 -0.667621)
(100.209 -0.219732 -0.67012)
(100.21 -0.216937 -0.672824)
(100.213 -0.214255 -0.675778)
(100.218 -0.211783 -0.679111)
(100.226 -0.210038 -0.683053)
(99.9938 0.00570382 0.0115125)
(99.9727 0.0114627 0.0241842)
(99.9338 0.0174231 0.039201)
(99.8765 0.023609 0.0579599)
(99.7996 0.0297766 0.0820264)
(99.7013 0.0352116 0.113293)
(99.5811 0.0383756 0.153821)
(99.4415 0.036496 0.205928)
(99.2909 0.0251546 0.271734)
(99.1472 -0.00158341 0.35224)
(99.0407 -0.0491148 0.44658)
(99.0087 -0.115607 0.550621)
(99.075 -0.183483 0.656871)
(99.231 -0.23445 0.757112)
(99.4362 -0.259095 0.844425)
(99.6457 -0.266422 0.916617)
(99.8342 -0.264564 0.974094)
(99.9943 -0.257973 1.01834)
(100.126 -0.249342 1.05106)
(100.232 -0.240646 1.07418)
(100.315 -0.232596 1.08968)
(100.378 -0.225236 1.0998)
(100.426 -0.218717 1.10667)
(100.462 -0.213624 1.11167)
(100.488 -0.210014 1.11552)
(100.507 -0.207568 1.11867)
(100.521 -0.206044 1.12147)
(100.53 -0.205269 1.12428)
(100.536 -0.205058 1.12741)
(100.538 -0.205245 1.13101)
(100.539 -0.20571 1.13505)
(100.539 -0.206382 1.13945)
(100.537 -0.207203 1.1441)
(100.536 -0.208133 1.14879)
(100.535 -0.209139 1.15325)
(100.535 -0.210219 1.15717)
(100.536 -0.211381 1.16022)
(100.539 -0.212623 1.16209)
(100.544 -0.213979 1.16239)
(100.555 -0.215578 1.16061)
(99.994 0.0169434 0.0112621)
(99.9734 0.0341154 0.0236704)
(99.9352 0.0520504 0.0384365)
(99.8785 0.0709577 0.05696)
(99.8011 0.0903072 0.0808706)
(99.7002 0.108234 0.112214)
(99.5732 0.120452 0.153383)
(99.4196 0.118796 0.207158)
(99.245 0.0895468 0.276325)
(99.0661 0.0131066 0.362864)
(98.9203 -0.126942 0.46648)
(98.8694 -0.324589 0.583719)