/*--------------------------------*- C++ -*----------------------------------*\
| =========                 |                                                 |
| \\      /  F ield         | OpenFOAM: The Open Source CFD Toolbox           |
|  \\    /   O peration     | Version:  2306                                  |
|   \\  /    A nd           | Website:  www.openfoam.com                      |
|    \\/     M anipulation  |                                                 |
\*---------------------------------------------------------------------------*/
FoamFile
{
    version     2.0;
    format      ascii;
    arch        "LSB;label=32;scalar=64";
    class       volVectorField;
    location    "0.65";
    object      Force;
}
// * * * * * * * * * * * * * * * * * * * * * * * * * * * * * * * * * * * * * //

dimensions      [1 1 -2 0 0 0 0];

internalField   uniform (0 0 0);

boundaryField
{
    walls
    {
        type            calculated;
        value           uniform (0 0 0);
    }
    inlet
    {
        type            calculated;
        value           uniform (0 0 0);
    }
    outlet
    {
        type            calculated;
        value           uniform (0 0 0);
    }
    NASA
    {
        type            calculated;
        value           nonuniform List<vector> 
14179
(
(-0.0143581 -0.132066 7.68441e-06)
(-0.0127964 -0.105808 5.45385e-06)
(-0.0653268 -0.528528 0.000728183)
(-0.100709 -0.810664 0.00257547)
(-0.0647735 -0.524454 0.000380729)
(-0.109658 -0.88261 0.00285521)
(0.218278 0.947616 -0.000335689)
(0.086947 0.436508 -5.86162e-05)
(0.655029 3.21156 0.00372731)
(0.0936972 0.470422 -6.29765e-05)
(0.000687016 -0.000207847 -3.21168e-07)
(-0.0178345 -0.146067 0.000471897)
(0.130323 0.651265 -0.00190013)
(-0.0355605 -0.323736 0.00116648)
(0.0617958 0.308518 -0.000875197)
(1.37711 0.928958 0.00282672)
(1.3894 0.920829 -0.000360997)
(0.0235687 0.132425 -5.23635e-05)
(0.154144 0.914814 -0.000105528)
(1.28656 0.852956 -0.00260302)
(-0.0169474 -0.23716 -5.91238e-06)
(-0.0210399 -0.195668 -0.000116691)
(-0.0193853 -0.26917 -0.000226606)
(-0.0084497 -0.0615829 3.21054e-06)
(-0.0129684 -0.107286 2.16645e-05)
(-0.00913624 -0.0665866 1.81515e-05)
(-0.0129769 -0.106986 0.000370813)
(-0.0151631 -0.108756 0.000389752)
(-0.0133669 -0.122214 0.000423633)
(-0.0157177 -0.216039 0.00382143)
(0.0473253 0.206683 1.32818e-05)
(0.0533447 0.251552 -8.9856e-07)
(0.0573522 0.270448 -8.82783e-05)
(0.0466866 0.203369 -2.17618e-05)
(0.0592394 0.217365 -1.58587e-05)
(0.0590633 0.216521 -2.88876e-05)
(0.0328332 0.119161 -9.21249e-06)
(0.0324405 0.117626 -1.90024e-05)
(-0.00183276 -0.0088643 0.00014752)
(-0.0131252 -0.063898 0.000694483)
(0.167988 0.613736 -0.00138675)
(0.0980554 0.35367 -0.000424512)
(0.0975804 0.489642 -7.16833e-05)
(-0.00577546 -0.0406529 3.54026e-06)
(-0.00526979 -0.0370848 -7.79141e-07)
(0.158951 0.798148 -0.000115002)
(-0.00979307 -0.067835 0.000277921)
(0.0967931 0.48349 -0.000815143)
(0.0899169 0.449561 -0.000881468)
(0.108602 0.443735 -0.000364669)
(0.0850167 0.316047 -2.14797e-05)
(0.0846717 0.314765 -5.14975e-05)
(-0.0608047 1.48383 -0.0001611)
(1.38638 0.921759 -0.000741363)
(-0.056414 1.3863 7.68686e-05)
(-0.00245574 1.20358 -0.000122392)
(0.0657493 0.994217 2.79838e-05)
(0.0656245 0.991706 -0.000178153)
(-0.00223882 1.10133 -1.51614e-05)
(0.0887353 0.348856 -4.15483e-05)
(0.158831 0.941865 -0.000177911)
(0.00806652 0.0293882 2.05634e-05)
(-0.0230488 0.570883 -0.00102477)
(0.930594 0.635202 0.0771816)
(-0.000802315 0.53621 -0.0012583)
(0.0271293 0.412553 -0.000843033)
(0.127513 0.746796 0.00657221)
(-0.0145001 -0.145101 1.06139e-05)
(-0.0143016 -0.13163 1.47182e-05)
(-0.0990419 -0.797359 0.00252973)
(-0.0112533 -0.0892758 5.28861e-06)
(-0.0127752 -0.10564 1.15551e-05)
(1.33089 0.881315 -0.00334002)
(1.28417 0.850646 -0.00301008)
(0.345556 2.05028 -0.00714948)
(0.260131 1.53792 -0.00487636)
(-0.111086 -0.895349 0.00141569)
(-0.0556833 -0.346865 0.00115836)
(-0.0548733 -0.344136 0.00117212)
(-0.0414855 -0.243641 0.0008376)
(0.156145 0.673947 -0.00226844)
(0.17462 0.755409 -0.00248916)
(0.763238 1.31042 -5.07925e-05)
(0.76371 1.30926 -0.000319863)
(0.0870492 0.436911 -6.69069e-05)
(0.0794568 0.381778 -4.15687e-05)
(-3.68769e-05 -0.00171244 -8.89892e-07)
(0.00171706 0.00894985 -3.35037e-07)
(0.00175244 0.00915226 -2.34012e-06)
(-2.96456e-05 -0.00166096 1.7918e-07)
(0.0945126 0.474489 -5.25922e-05)
(0.0903893 0.466247 -4.90473e-05)
(-0.0200854 -0.164327 0.000563449)
(-0.0134408 -0.096415 0.000350833)
(-0.0202629 -0.144829 0.000495394)
(-0.0122584 -0.0846202 0.000328575)
(-0.0180022 -0.123597 0.0003802)
(0.0853221 0.425967 -0.00143207)
(-0.0201011 -0.183078 0.000610566)
(-0.0247646 -0.340833 0.00134121)
(-0.0209491 -0.294684 0.000386273)
(0.0800123 0.399831 -0.00131588)
(1.37421 0.922921 -0.00267268)
(0.0999837 0.589525 -7.00959e-05)
(0.108084 0.604581 -3.2187e-05)
(0.11022 0.616248 -7.07769e-05)
(0.182539 1.2711 -0.000134821)
(0.0985071 0.584404 -6.36665e-05)
(0.156667 0.929571 -0.000100137)
(0.0219069 0.0206986 1.38951e-05)
(0.32378 -0.119316 0.00324819)
(0.347211 -0.137657 0.00163323)
(0.0110886 0.0106325 -3.01615e-05)
(-0.00609678 -0.0262933 0.000164401)
(0.022732 0.0838689 -0.000220158)
(0.00319626 0.0112052 3.72145e-05)
(0.0230317 0.0928132 -0.000141123)
(-0.00901995 -0.0403261 0.000155032)
(-0.00115545 -0.00714729 0.000105145)
(0.00493836 0.0207398 -1.52487e-05)
(-0.0178059 -0.086189 0.000291729)
(-0.00115474 0.733333 -0.00220067)
(0.0406882 0.608862 -0.00190299)
(-0.00167406 0.982343 -0.00300777)
(0.0318172 0.482563 -0.00182565)
(-0.0349368 0.870954 -0.00281287)
(1.112 0.748184 -0.00259134)
(-0.0473454 1.16783 -0.00354204)
(0.109579 0.648887 -0.00305819)
(0.155528 0.609307 -0.0022205)
(0.117156 0.458366 -0.00143104)
(0.107804 0.393524 -0.00120744)
(0.152097 0.555905 -0.00171728)
(0.0626681 0.226215 -0.000691774)
(0.085386 0.308744 -0.00102264)
(-0.0130871 -0.147469 2.50059e-06)
(-0.0168326 -0.235233 2.11721e-05)
(-0.0102936 -0.0793269 4.93304e-06)
(-0.00830222 -0.0605127 5.72231e-06)
(0.000503984 0.00123848 0.541716)
(-0.0129978 -0.102367 0.000360809)
(0.000475336 0.001184 0.515156)
(-0.0144582 -0.110261 0.000397728)
(0.000784961 0.00149113 0.585901)
(-0.0130992 -0.130922 0.000520314)
(0.0010293 0.001945 0.586832)
(-0.0122122 -0.140831 0.00135357)
(0.0531329 0.250541 -3.65042e-05)
(0.0395885 0.18006 -1.11976e-05)
(0.0399059 0.181524 -2.68817e-05)
(0.0469093 0.204306 -2.18626e-05)
(0.046187 0.203444 -1.33686e-05)
(0.0464255 0.204511 -2.76086e-05)
(0.0594685 0.218124 -2.65757e-05)
(0.0243957 0.12135 -1.70777e-05)
(0.0218429 0.110839 -1.56039e-05)
(0.0331094 0.120124 -1.4253e-05)
(0.030081 0.105866 -9.43271e-06)
(-0.0063133 -0.0289395 0.000252627)
(-0.00539257 -0.025723 0.000277507)
(0.000379968 0.00094639 0.323196)
(0.000381259 0.000907081 0.316335)
(0.000372056 0.000889458 0.312788)
(0.000312475 0.000896208 0.358587)
(0.0921866 0.314255 -0.000132208)
(0.157792 0.551951 0.00299311)
(-1.80861e-05 0.000940343 0.336762)
(0.000300117 0.000401 0.304158)
(0.000121463 0.000319225 0.107881)
(0.0807035 0.283409 -0.000313153)
(0.285704 0.663729 -5.22695e-06)
(0.168596 0.594394 5.42477e-05)
(0.166907 0.588482 -4.32673e-05)
(0.0793457 0.370623 -3.19268e-05)
(0.0792903 0.37035 -5.46137e-05)
(0.125989 0.601901 -5.8691e-05)
(0.0852672 0.3797 -4.85389e-05)
(0.0852958 0.387194 -2.78498e-05)
(0.0863438 0.391824 -5.35244e-05)
(0.0842301 0.375244 -2.05195e-05)
(-0.00440587 -0.0311861 2.04748e-06)
(-0.00570337 -0.0401498 2.69013e-06)
(0.146209 0.774596 -5.19623e-05)
(0.272609 0.470301 0.0107444)
(0.000943836 0.00380497 0.876198)
(0.00035233 0.00191168 0.417814)
(0.049962 0.145403 -0.000104073)
(-0.0117975 -0.0736564 0.000347764)
(-0.0118651 -0.0749641 0.000494544)
(0.000902072 0.00215532 0.688652)
(0.000303376 0.000450439 0.312704)
(0.0959841 0.492955 0.000148063)
(0.000483277 0.000445224 0.376997)
(0.139718 0.734796 0.00408743)
(0.000518029 0.00113844 0.350318)
(0.000370024 0.00094654 0.332951)
(-0.000375077 0.000650465 0.356582)
(6.96822e-05 0.000434268 0.112825)
(0.0801631 0.383148 -0.000777919)
(0.102732 0.477533 7.133e-05)
(0.0004345 0.000321914 0.206856)
(9.62768e-05 0.000528307 0.108032)
(0.168623 0.709 0.00064287)
(0.0850419 0.316137 -2.93802e-05)
(0.0810414 0.310237 -2.68613e-05)
(0.0967498 0.394425 -4.56898e-05)
(0.0678753 0.273388 -1.31569e-05)
(-0.861835 2.75522 -0.0211395)
(-0.0577932 1.41546 -6.51553e-05)
(-0.183854 1.71839 0.000747514)
(0.0642988 0.971297 -8.72481e-05)
(0.0496436 1.06119 -6.12348e-05)
(-0.00229686 1.11675 -4.52246e-05)
(0.0274596 1.03672 -5.13333e-05)
(0.104731 1.15002 -7.71856e-05)
(0.132719 1.71324 -8.67624e-05)
(0.129886 1.67734 -0.000106427)
(0.105746 1.16097 -7.78041e-05)
(0.12377 1.26486 -0.000111072)
(0.136748 1.27235 -1.72857e-05)
(0.136812 1.27377 -0.00014435)
(0.123344 1.25958 -2.05049e-05)
(0.069623 0.288552 -3.39904e-05)
(0.0598359 0.237486 -2.75409e-05)
(0.08851 0.347862 -3.53339e-05)
(0.111756 0.757194 -0.00010318)
(0.106321 0.669773 -7.14771e-05)
(-0.000418417 0.000761036 0.576594)
(0.000840722 0.00317441 0.908584)
(0.00149701 0.00508885 0.000124991)
(0.000302958 0.00344529 0.751245)
(0.00266361 0.00931391 0.000115795)
(0.000424868 0.0103513 0.276095)
(-0.0612514 0.587036 -0.00162605)
(0.00742438 -0.00157258 1.75675)
(0.000337224 0.000762324 0.305737)
(0.0141673 0.52006 -0.00128093)
(0.000728462 0.000273023 0.24656)
(0.0232996 0.488933 -0.00107767)
(0.0615523 0.530129 -0.00127945)
(0.0612676 0.520121 -0.00123363)
(0.00035084 0.00062029 0.245966)
(0.000378813 0.00067887 0.270642)
(0.0577185 0.533108 -0.00117907)
(0.0524689 0.529962 -0.000880534)
(0.0474852 0.520423 0.00045664)
(2.06277e-05 -0.000404139 0.226912)
(-0.0193371 -0.106215 0.00128562)
(0.000130438 0.00116024 0.510681)
(0.0915076 0.509206 -0.000824272)
(0.00037328 0.000915311 0.323406)
(0.000376116 0.000919838 0.324674)
(0.481579 -0.191813 -0.003801)
(0.223122 0.210998 0.00198659)
(0.00018151 0.000163488 0.0785653)
(-0.0515658 -0.507554 0.00117241)
(-0.0671251 -0.542709 0.00126037)
(-0.0543282 -0.534341 0.00151271)
(-0.0674468 -0.545272 0.00129021)
(-0.0728702 -0.58848 0.00167558)
(-0.0583843 -0.573774 0.00175751)
(-0.0816262 -0.658341 0.00202889)
(0.177088 0.766912 -0.00253488)
(0.445666 2.18343 -0.00701181)
(0.180577 0.782431 -0.0025787)
(0.4252 2.08261 -0.00670651)
(-0.0648476 -0.524933 0.000427847)
(-0.0413489 -0.258145 0.00084179)
(-0.104993 -0.84486 0.00269502)
(-0.0470885 -0.293523 0.000960522)
(1.39256 0.922986 -0.000841603)
(1.39051 0.921555 -0.000390855)
(0.232619 1.00999 -0.000443855)
(0.624245 3.06291 -0.00219043)
(0.579452 2.84286 -0.00130253)
(0.22981 0.997532 -0.00072704)
(0.408341 2.42077 -0.00110849)
(0.488211 2.89441 -0.00209575)
(0.000252806 -0.00176674 2.13642e-06)
(0.000666609 0.000173864 -3.32e-09)
(0.0235475 0.133409 -0.000100204)
(0.0239498 0.13517 -6.558e-05)
(0.0522421 0.227013 -0.000609759)
(0.0385855 0.175531 -0.000469799)
(0.0624138 0.271966 -0.000769682)
(0.0302737 0.136835 -0.000334611)
(-0.10882 -0.876484 0.00283676)
(-0.0690202 -0.502049 0.00162993)
(0.0200868 0.0950622 -0.00017929)
(-0.00955311 -0.0533972 0.000234205)
(0.0629077 0.229489 -0.000772372)
(0.0708502 0.258431 -0.00084623)
(0.0341483 0.123154 -0.000416387)
(0.0395476 0.14262 -0.000467514)
(0.288461 1.30487 -0.000488007)
(0.185844 0.80609 -0.000158802)
(0.321696 1.52085 -0.000599593)
(0.143669 0.720844 -0.000161677)
(-0.0185719 -0.156376 0.000186352)
(-0.0419286 -0.311031 0.000356362)
(-0.00682881 -0.0499349 -8.15014e-06)
(0.00148473 0.00401562 -2.81403e-06)
(-0.0174872 -0.120143 4.53333e-05)
(-0.0232072 -0.162792 9.72898e-05)
(0.0975443 0.398869 0.000112511)
(0.0844031 0.313806 -0.000117457)
(0.0845574 0.314352 -7.11458e-05)
(0.109048 0.447432 -0.000757493)
(0.16659 0.731816 -0.000264473)
(0.14309 0.659498 -0.000117352)
(0.173908 0.764572 -0.000283963)
(0.18328 0.854815 -0.000134392)
(-0.00258447 1.24056 -0.000131704)
(0.0745917 1.12452 -0.000406488)
(-0.00307466 1.43676 -0.00044567)
(0.0689245 1.04104 -0.000232499)
(-0.0618257 1.50958 -0.000176954)
(1.38822 0.921306 -0.000424963)
(-0.0668384 1.63204 -0.000501295)
(0.495617 4.2504 -0.00234803)
(0.0881671 0.346356 -7.22441e-05)
(0.0857974 0.33704 -0.000103916)
(0.0652817 0.239264 -4.94176e-05)
(0.0597706 0.219061 -3.12008e-05)
(0.0578117 0.303126 -0.000154678)
(0.186132 0.918849 -0.00123824)
(0.0227398 0.126903 -8.32871e-05)
(0.0483362 0.259461 -0.000101218)
(0.748786 4.68471 0.00161393)
(0.356324 2.38051 0.000184342)
(0.0345625 0.125274 -2.46926e-05)
(0.0323545 0.117279 -1.7558e-05)
(1.26835 0.842832 -0.00152033)
(0.0900717 0.624118 -0.00202228)
(0.247415 0.232118 -0.0006976)
(0.498143 -0.2065 0.000258424)
(0.234358 0.220554 -0.000742013)
(0.516886 -0.214636 3.30388e-06)
(0.0590515 0.216511 -3.13019e-05)
(0.0291806 0.102594 -1.76291e-05)
(0.0326305 0.118342 -1.64448e-05)
(0.285656 0.663634 -2.51262e-05)
(0.276238 0.810917 -0.000100576)
(0.000773634 0.00243527 0.741453)
(0.000304454 0.00119228 0.36604)
(0.00047979 0.0004609 0.386022)
(-0.192621 1.78515 -0.000210958)
(-0.0597835 1.46088 -7.48097e-05)
(1.38244 0.922493 -0.00142343)
(0.0255469 0.0241375 1.18465e-05)
(0.364407 -0.149772 0.000135223)
(0.357005 -0.145144 0.000571654)
(0.0271958 0.0256642 3.72451e-06)
(0.000455924 0.00124633 0.554313)
(0.000355247 0.000628712 0.384005)
(0.000334168 0.000757537 0.344659)
(0.000536522 0.00117411 0.368605)
(-0.0898743 -0.724183 0.00227482)
(1.36795 0.905931 -0.00344612)
(1.35514 0.897426 -0.00340925)
(1.32866 0.879853 -0.00333534)
(1.35439 0.896923 -0.00340746)
(0.395784 1.93745 -0.00625127)
(0.174006 0.752952 -0.00248835)
(0.175814 0.761264 -0.00251672)
(0.417603 2.04522 -0.00659388)
(0.269416 1.59309 -0.00508902)
(0.288041 1.70352 -0.00540572)
(-0.0231313 -0.136979 0.000462345)
(-0.0299057 -0.176201 0.000593306)
(-0.0545273 -0.339517 0.00112381)
(-0.0491262 -0.306083 0.00100447)
(-0.039586 -0.232407 0.000790364)
(-0.0324504 -0.190935 0.00064407)
(0.253089 2.15545 -0.00675243)
(0.24023 2.04519 -0.00650543)
(0.0259932 0.0960072 -0.000262929)
(0.0244855 0.099008 -0.000305973)
(0.036328 0.147789 -0.000207996)
(0.0341212 0.126259 -0.000371437)
(0.00233882 0.00944501 4.2561e-05)
(0.0291782 0.125106 -0.000242256)
(0.0383301 0.165778 -0.000407873)
(0.0235655 0.105153 -0.000190344)
(0.0421367 0.156098 -0.000475273)
(0.0465037 0.189722 -0.000313334)
(0.0364189 0.134813 -0.000401629)
(0.0425345 0.636217 -0.00197532)
(-0.00176346 1.02564 -0.00313988)
(-0.00196721 1.13036 -0.0034578)
(0.0468216 0.700602 -0.00217967)
(-0.0547837 1.35012 -0.00410055)
(1.318 0.872757 -0.00329987)
(-0.0572796 1.41129 -0.00428889)
(-0.0491917 1.21307 -0.00368281)
(-0.0535757 1.32054 -0.00401094)
(1.31531 0.870967 -0.00329348)
(-0.00202453 1.15875 -0.00354394)
(0.0511353 0.766262 -0.00237613)
(-0.00213792 1.21521 -0.00371817)
(0.0481303 0.720671 -0.00221333)
(0.2261 1.33708 -0.0041201)
(0.410775 2.55752 -0.010211)
(0.236681 1.57782 -0.00502493)
(0.24662 1.45732 -0.00471407)
(0.404319 2.52327 -0.00796624)
(0.37679 2.35056 -0.00758645)
(0.195097 1.2982 -0.00523181)
(-0.0808604 -0.594305 0.0015078)
(-0.101947 -0.821294 0.00270733)
(-0.0659965 -0.438532 0.00144045)
(-0.0558832 -0.348587 0.00118502)
(-0.0792341 -0.531893 0.00165771)
(-0.052199 -0.326437 0.00113689)
(-0.0226651 -0.126428 0.000468333)
(-0.0433359 -0.254918 0.00090168)
(0.00658881 0.0261913 0.000173302)
(-0.0459244 -0.271403 0.000965697)
(0.23031 1.03547 -0.00355772)
(0.178462 0.771595 -0.00251878)
(0.23664 1.11581 -0.00362257)
(0.176228 0.762175 -0.0024982)
(0.223704 1.00912 -0.0032974)
(0.240682 1.13392 -0.00406324)
(0.366761 1.79354 -0.00594737)
(0.105047 0.410908 -0.00129628)
(0.0886661 0.346748 -0.00112599)
(0.0947147 0.345644 -0.00107872)
(0.0745682 0.272 -0.000880813)
(0.0860547 0.336566 -0.00110665)
(0.0800373 0.313096 -0.00104559)
(0.0549494 0.198289 -0.000615922)
(0.042081 0.151761 -0.000491358)
(0.126715 0.293826 -0.000892628)
(0.107882 0.250047 -0.000721305)
(-0.0206684 -0.156802 0.000545284)
(-0.0180802 -0.12945 0.000456322)
(0.0809702 0.414151 -0.00162706)
(0.0855392 0.427239 -0.00135322)
(0.123767 0.653806 -0.00271871)
(-0.0192903 -0.190887 0.000568278)
(-0.0198973 -0.181629 0.000613597)
(-0.0172095 -0.189657 0.000317339)
(-0.0212717 -0.295483 0.000913103)
(0.0768437 0.368031 -0.00132453)
(0.0814349 0.406796 -0.00127796)
(-0.00369716 -0.0157243 0.000106023)
(0.00660254 0.0255975 3.35306e-05)
(-7.8457e-05 -0.00109493 7.51088e-05)
(0.0135788 0.0498054 -8.51032e-05)
(0.0175938 0.648543 -0.00197316)
(-0.00138454 0.847129 -0.00259963)
(0.0268594 0.567975 -0.0018066)
(0.0360488 0.540575 -0.00175937)
(-0.10594 1.00617 -0.00446614)
(-0.0412972 1.02145 -0.00315332)
(1.23235 0.823193 5.68046e-05)
(-0.464314 1.51064 -0.00417206)
(-0.0451909 1.11562 -0.00340188)
(-0.141587 1.31642 -0.0039211)
(-0.0116062 -0.0607284 0.000257111)
(-0.00834594 -0.0430352 0.000194381)
(-0.0101557 -0.0521022 0.000229116)
(-0.00976012 -0.0512821 0.000222566)
(-0.0247184 -0.135788 0.000370658)
(0.000795313 0.00147928 0.39207)
(0.0583465 0.392909 -0.00126189)
(0.0920879 0.638229 -0.00215777)
(0.0604185 0.406576 -0.0013666)
(0.125827 0.459471 -0.00139213)
(0.152616 0.557577 -0.00169595)
(0.0724765 0.261709 -0.000789182)
(0.0612944 0.214542 -0.000655222)
(0.0804793 0.28221 -0.00103959)
(0.0884183 0.31947 -0.000982761)
(0.44642 -0.186512 -0.00252638)
(0.211271 0.194057 0.000256381)
(0.257943 0.239971 -0.000524559)
(0.520559 -0.217121 -0.000819173)
(0.226916 0.984334 -0.00313704)
(0.567941 2.78505 -0.00867681)
(0.204138 0.885703 -0.00275508)
(0.538497 2.64045 -0.00834059)
(-0.0651243 -0.526986 0.000605232)
(-0.000247525 -0.00480005 8.26549e-06)
(-6.04512e-05 -0.00364755 5.57791e-06)
(0.239843 1.04071 -0.00118643)
(0.65457 3.21131 -0.00453868)
(0.217532 0.944066 -0.00131966)
(-0.0609893 -0.443822 0.00141654)
(0.179134 0.787923 -0.000523117)
(0.145796 0.673059 -0.000512532)
(0.179278 0.788607 -0.000602338)
(0.145724 0.67266 -0.0004506)
(0.0730055 0.267645 -0.000193349)
(0.0721309 0.264394 -0.000115936)
(-0.0324683 -0.238346 0.000175759)
(0.165422 0.818987 -0.000622093)
(0.0652853 0.343464 -0.000260344)
(0.0398956 0.144667 -0.00010943)
(0.0387543 0.140495 -6.11496e-05)
(1.3894 0.920922 -0.000330845)
(0.0263549 0.0247615 -1.44708e-06)
(0.369591 -0.153388 9.50003e-06)
(0.0255862 0.0240309 1.20374e-07)
(0.372594 -0.154567 1.65859e-06)
(-0.0195785 -0.123966 0.000395351)
(-0.022304 -0.140767 0.000451442)
(-0.0392815 -0.245403 0.000799422)
(-0.0949023 -0.764321 0.00241512)
(-0.0342469 -0.214378 0.0006959)
(0.182374 0.790377 -0.00260344)
(0.194159 0.842189 -0.00276147)
(0.105381 0.461584 -0.00141847)
(0.0793222 0.364424 -0.00111627)
(0.108913 0.477167 -0.00147021)
(0.0759743 0.348912 -0.00106403)
(0.0456694 0.208479 -0.000588448)
(0.0710666 0.310182 -0.000901778)
(0.077992 0.340751 -0.00100815)
(0.0515688 0.23586 -0.000684783)
(0.0573308 0.209818 -0.000736716)
(0.0557966 0.204068 -0.000716012)
(0.0611478 0.223095 -0.000756389)
(0.0573821 0.209453 -0.000721653)
(0.0154926 0.0795002 -0.000221861)
(0.0711836 0.349616 -0.00105196)
(-0.068498 -0.498115 0.00161153)
(0.0277843 0.133612 -0.000321382)
(-0.00572399 -0.0329399 0.000158626)
(0.0349687 0.169474 -0.000448332)
(0.0311331 0.112694 -0.000401438)
(0.0298011 0.107789 -0.000383848)
(0.0329431 0.118821 -0.000405287)
(0.0304129 0.109746 -0.000381955)
(1.32981 0.880593 -0.00333485)
(1.29816 0.859645 -0.00317745)
(0.127417 0.120048 -0.000438808)
(0.359162 -0.149089 0.000290992)
(0.369712 -0.153468 0.000301277)
(0.115513 0.108821 -0.000401588)
(0.476779 -0.197669 0.000335755)
(0.218116 0.205468 -0.000716506)
(0.203942 0.192181 -0.000676985)
(0.456701 -0.189451 0.000336938)
(7.76403e-05 -0.0130926 1.88884e-05)
(0.000114114 -0.010402 2.05275e-05)
(-0.051203 -0.504078 0.000986026)
(3.75944e-05 -0.0160495 3.83035e-05)
(-3.48185e-05 -0.0213782 4.19693e-05)
(-0.0661641 -0.535097 0.00105298)
(-0.0529332 -0.520789 0.00137781)
(-7.33649e-05 -0.0242145 7.16486e-05)
(-1.48068e-05 -0.0198644 5.50068e-05)
(-0.0695411 -0.561936 0.00147818)
(-0.0700128 -0.565696 0.00150512)
(-6.12846e-05 -0.0232998 7.67993e-05)
(-0.0564516 -0.554987 0.00165787)
(-1.89099e-05 -0.0201999 6.47421e-05)
(-0.0773564 -0.624275 0.00187575)
(1.38214 0.915422 -0.00344388)
(1.38116 0.914755 -0.00345927)
(1.37939 0.913562 -0.00346831)
(1.38327 0.916147 -0.00346592)
(0.213052 0.924312 -0.00295949)
(0.521272 2.55605 -0.00814039)
(0.534204 2.61943 -0.00828328)
(0.185109 0.803221 -0.00260069)
(0.177895 0.770538 -0.00254407)
(0.234713 1.05974 -0.00346136)
(0.265585 1.25362 -0.00404982)
(0.439136 2.15127 -0.00691409)
(0.179348 0.776965 -0.00256263)
(0.241934 1.09275 -0.00355871)
(0.255077 1.20367 -0.00389965)
(0.431682 2.11455 -0.00680929)
(1.38786 0.919819 -0.00164629)
(1.38791 0.919889 -0.00131886)
(1.39199 0.922599 -0.00090776)
(1.38971 0.921083 -0.00126927)
(0.497543 2.94997 -0.00243065)
(0.45934 2.72294 -0.00301117)
(0.000175384 -0.00221132 2.64472e-06)
(-0.0650242 -0.52622 0.000560533)
(4.34783e-05 -0.00300801 4.55617e-06)
(0.0230539 0.130574 -0.000181792)
(0.0232569 0.131757 -0.000153569)
(0.0234753 0.13302 -0.000111277)
(0.0233745 0.132442 -0.000143643)
(0.208657 0.905856 -0.000730199)
(0.24111 1.04633 -0.00106633)
(0.659194 3.23413 -0.00349608)
(-0.0549012 -0.365117 0.00117518)
(-0.0431605 -0.269312 0.0008789)
(-0.0645606 -0.469591 0.00150508)
(-0.0452003 -0.281884 0.000921192)
(-0.0596218 -0.396204 0.00128089)
(0.457769 3.91469 -0.0026539)
(0.448458 3.83357 -0.00216542)
(0.0843719 0.313693 -0.000134466)
(0.109126 0.447784 0.000375857)
(0.109224 0.448208 -0.000843432)
(0.0842738 0.313348 -0.000181743)
(0.142173 0.655571 -0.00035442)
(0.177638 0.781162 -0.000367746)
(0.178646 0.785717 -0.00044756)
(0.145153 0.669847 -0.000387464)
(0.109208 0.448144 0.00028614)
(0.0841273 0.312825 -0.000244538)
(0.109153 0.447927 -0.000931027)
(0.0842292 0.313189 -0.000199399)
(0.0740539 1.11701 -0.000434125)
(-0.00317854 1.48059 -0.000540029)
(-0.0032862 1.51325 -0.000816586)
(0.0690911 1.04244 -0.000598526)
(-0.070264 1.7138 -0.000993542)
(1.39199 0.922589 -0.000662032)
(-0.068128 1.66162 -0.00121706)
(-0.0683834 1.66941 -0.000603387)
(-0.0704551 1.71875 -0.000902836)
(1.39136 0.92216 -0.000584063)
(-0.00326762 1.49983 -0.000881969)
(0.0595528 0.900359 -0.000716714)
(-0.00310974 1.41971 -0.00106064)
(0.0663202 1.00087 -0.00062914)
(0.31166 1.41029 -0.000605026)
(0.242974 1.05482 -0.000565887)
(0.611478 3.00029 -0.0018204)
(0.366151 1.73132 -0.00124285)
(0.33545 1.58641 -0.000662613)
(0.599812 2.94303 -0.00160153)
(0.241319 1.04754 -0.000670467)
(0.326906 1.47899 -0.00106348)
(0.0846853 0.332678 -0.000122021)
(0.0768053 0.301654 -0.000166715)
(0.0670227 0.245638 -5.95173e-05)
(0.0710557 0.260432 -9.86616e-05)
(0.0726088 0.285164 -0.000173047)
(0.669218 4.18539 -0.00228027)
(0.437982 2.59641 -0.0014192)
(0.696456 4.35761 -0.0023916)
(0.45186 3.02135 -0.00194499)
(0.423546 2.83043 -0.00161499)
(0.460398 2.72944 -0.00168088)
(-0.0306451 -0.225665 0.000112652)
(-0.0187879 -0.127467 9.54869e-05)
(0.000351362 -0.00124127 1.36604e-06)
(-0.018063 -0.123312 6.19842e-05)
(0.000382291 -0.0012328 1.34584e-06)
(0.0645225 0.3389 -0.000161458)
(0.162996 0.806083 -0.000383876)
(0.165359 0.818326 -0.000470062)
(0.0495976 0.267365 -0.000202174)
(0.0236157 0.133731 -8.87537e-05)
(0.0495675 0.266672 -0.000129877)
(0.0236361 0.13368 -7.62322e-05)
(0.0355107 0.128706 -2.85972e-05)
(0.0383082 0.138864 -5.07067e-05)
(0.0650871 0.237423 -0.00079307)
(0.0675417 0.24636 -0.000815551)
(0.0314934 0.110118 -0.000373478)
(0.0356328 0.128502 -0.000430534)
(0.0373659 0.130656 -0.000427714)
(0.0373134 0.134558 -0.000446132)
(0.276328 0.811321 -0.000283751)
(0.276269 0.811035 -0.000173315)
(0.286326 0.66532 -0.00018274)
(0.286195 0.664995 -0.000153511)
(-0.194398 1.80129 -0.000256453)
(-0.0632599 1.54563 -0.000316588)
(1.38889 0.920948 -0.000342341)
(-0.867614 2.8214 -0.000740587)
(-0.0650826 1.58971 -0.000408589)
(-0.202743 1.87718 -0.000555631)
(0.0634948 0.232697 -3.97205e-05)
(0.0615424 0.225594 -3.28546e-05)
(0.0337035 0.122144 -2.01868e-05)
(0.0302976 0.10648 -1.92365e-05)
(0.0288557 0.101419 -1.55506e-05)
(0.0329828 0.119577 -1.78178e-05)
(0.451186 2.67184 -0.00841027)
(0.391092 2.31563 -0.00734135)
(0.00157809 0.00609381 -5.36273e-06)
(-0.0014445 -0.0114121 5.06433e-05)
(-0.0268418 -0.168736 0.00054465)
(-0.0234922 -0.148091 0.00047554)
(-0.00652789 -0.0408485 0.000146238)
(-0.00278349 -0.0191674 7.54459e-05)
(1.36648 0.904968 -0.00344252)
(1.37516 0.910731 -0.00346326)
(1.38067 0.914405 -0.00347202)
(1.37575 0.911129 -0.00346406)
(-0.0206939 -0.122868 0.000415787)
(-0.0149182 -0.0894306 0.000305139)
(0.349597 2.06892 -0.00654178)
(0.377773 2.23652 -0.00709207)
(-0.0934101 -0.75241 0.00237408)
(-0.0283233 -0.177867 0.000574683)
(-0.0324793 -0.203484 0.000659892)
(-0.00821371 -0.0506099 0.000177837)
(-0.0128806 -0.0776332 0.000266536)
(0.196686 0.853225 -0.00277969)
(0.512267 2.51178 -0.00802835)
(0.187094 0.811732 -0.00263301)
(0.476371 2.33502 -0.00749819)
(0.282473 2.40658 -0.00755542)
(0.290754 2.47752 -0.00778816)
(0.0670304 0.27417 -0.000493934)
(0.0542818 0.201316 -0.000628566)
(0.057084 0.211748 -0.000663411)
(0.0631369 0.258152 -0.00112281)
(0.100452 0.439841 -0.00134557)
(0.0674614 0.309485 -0.000933251)
(0.0960736 0.420531 -0.00127976)
(0.0714978 0.328175 -0.000996289)
(0.0603432 0.223882 -0.000703796)
(0.0580171 0.215222 -0.000675298)
(0.0717853 0.293735 -0.000534185)
(-0.00246621 1.37607 -0.00421065)
(0.0573756 0.860283 -0.0026641)
(0.0586638 0.8797 -0.00272328)
(-0.00241138 1.34956 -0.00412926)
(-0.0644823 1.58766 -0.00482593)
(1.36487 0.90388 -0.00343591)
(-0.0651984 1.6051 -0.00487979)
(-0.00248548 1.38517 -0.00423714)
(0.0601196 0.901675 -0.00278993)
(-0.0025167 1.39825 -0.00427761)
(0.0590875 0.886093 -0.00274276)
(-0.0640554 1.57722 -0.00479544)
(1.36223 0.902132 -0.0034288)
(-0.0628746 1.54832 -0.00470683)
(0.316568 2.69821 -0.00844278)
(0.310692 2.64792 -0.00829137)
(0.0439495 0.162849 -0.000498537)
(0.0482447 0.17884 -0.000552747)
(0.0566591 0.231503 -0.000998342)
(0.0530784 0.196836 -0.000613559)
(0.0613247 0.250697 -0.00044527)
(0.0496924 0.184229 -0.000570815)
(0.0846897 0.370302 -0.00111028)
(0.0620791 0.28456 -0.000850242)
(0.089893 0.393265 -0.00118861)
(0.0573602 0.262698 -0.000775901)
(-0.0579585 1.42786 -0.00434061)
(-0.0602222 1.4834 -0.00450764)
(1.34242 0.888977 -0.00337257)
(0.0519698 0.778867 -0.00241569)
(-0.00217318 1.2312 -0.00376836)
(-0.00228109 1.2864 -0.00393514)
(0.054294 0.813841 -0.00252238)
(-0.00231393 1.3026 -0.00398489)
(0.0568233 0.851935 -0.00263925)
(0.0550871 0.825784 -0.00255821)
(-0.00238615 1.33813 -0.00409549)
(-0.0608974 1.49994 -0.0045583)
(1.34778 0.892532 -0.00338627)
(-0.0623956 1.53663 -0.00467254)
(0.0747115 0.292788 -0.000996468)
(0.0749022 0.293401 -0.000998561)
(0.0551358 0.201467 -0.000704575)
(0.0554171 0.202634 -0.00071083)
(0.0750304 0.294218 -0.00100051)
(0.239515 1.12964 -0.00367197)
(0.40277 1.97202 -0.00639059)
(0.224803 1.01429 -0.00331908)
(0.173958 0.752921 -0.00249649)
(0.174972 0.757475 -0.00250806)
(0.23185 1.04667 -0.00342117)
(0.410736 2.01137 -0.00648586)
(0.250966 1.18414 -0.00384117)
(0.0762256 0.298346 -0.00100946)
(0.0758447 0.296903 -0.00100643)
(0.0748965 0.293331 -0.000997884)
(0.0551697 0.201544 -0.000703775)
(0.0566092 0.206671 -0.000715063)
(0.262612 1.7509 -0.00554263)
(0.418971 2.61514 -0.00830164)
(0.275568 1.62952 -0.00518358)
(0.282081 1.66817 -0.00530421)
(0.449336 2.80512 -0.0088779)
(0.439623 2.74443 -0.00869469)
(0.269254 1.79531 -0.00566904)
(-0.000326399 -0.00451911 4.49747e-05)
(-0.0252173 -0.149059 0.000502252)
(0.0549125 0.268717 -0.000783845)
(0.00746876 0.0370315 -8.09881e-05)
(-0.0276661 -0.163236 0.000549599)
(-0.00793224 -0.0458983 0.00018276)
(-0.0652091 -0.433137 0.00141528)
(-0.0527864 -0.328691 0.00108436)
(-0.0657228 -0.477969 0.00153565)
(-0.0510053 -0.317675 0.00104366)
(-0.0612192 -0.406731 0.00131839)
(0.460553 2.87534 -0.00909212)
(0.469866 2.93364 -0.00926753)
(0.292772 1.95265 -0.00614534)
(0.286785 1.9126 -0.00602375)
(-0.0197858 -0.110544 0.000406093)
(-0.0372001 -0.21849 0.000739017)
(0.0482433 0.235553 -0.000672581)
(0.00415854 0.0195083 -2.25255e-05)
(0.0420345 0.204659 -0.00056954)
(-0.0347976 -0.20454 0.000689705)
(-0.0109579 -0.0623623 0.000238078)
(0.02904 0.104921 -0.00037219)
(0.0294597 0.106525 -0.000379272)
(0.0290345 0.104873 -0.000371254)
(0.0298987 0.107914 -0.000377577)
(0.122399 0.358502 -0.00109108)
(0.148511 0.435197 -0.0013593)
(0.196645 0.4563 -0.001476)
(0.19139 0.444097 -0.0014347)
(0.163892 0.38024 -0.00121659)
(0.172109 0.399331 -0.00128553)
(0.155535 0.455833 -0.00143077)
(-0.610933 1.98917 -0.00577035)
(1.32477 0.877251 -0.00331757)
(-0.0565495 1.3934 -0.00423367)
(-0.169657 1.57647 -0.00473694)
(-0.583409 1.89972 -0.00557268)
(-0.513061 1.67005 -0.00474854)
(-0.531358 1.72997 -0.00502513)
(-0.146836 1.36514 -0.00409869)
(-0.0507062 1.25021 -0.00379349)
(1.30839 0.866364 -0.00325081)
(-0.56612 1.84357 -0.00535385)
(0.0867283 0.316423 -0.000995485)
(0.0798006 0.291127 -0.000932555)
(0.140706 0.132581 -0.000480293)
(0.39868 -0.165495 0.000328327)
(0.383305 -0.15911 0.000314279)
(0.154518 0.145607 -0.000521465)
(0.0535537 0.18739 -0.000579252)
(0.0499913 0.180343 -0.000565123)
(0.0454583 0.163965 -0.000524104)
(0.0401081 0.140252 -0.000452686)
(0.185377 0.174702 -0.00061838)
(0.416514 -0.172888 0.000333849)
(0.434622 -0.180368 0.000340661)
(0.170254 0.160448 -0.000568791)
(0.643544 3.15685 -0.00469622)
(0.218312 0.94741 -0.0013735)
(0.245903 1.06697 -0.00174103)
(0.636884 3.12382 -0.00517535)
(0.229477 0.995632 -0.00253601)
(0.616254 3.02241 -0.00721065)
(0.253598 1.10027 -0.00264884)
(0.646663 3.17154 -0.00802037)
(0.204314 0.886502 -0.00262218)
(0.612731 3.00453 -0.00876252)
(0.196591 0.853016 -0.002506)
(0.626703 3.07339 -0.00900893)
(-0.0652717 -0.528113 0.000688784)
(-0.0328577 -0.240993 0.000334778)
(-0.0463869 -0.338455 0.00105049)
(-0.0596495 -0.434154 0.00138377)
(-0.0976814 -0.786502 0.00249139)
(-0.0513918 -0.505883 0.00109663)
(-0.00510205 -0.154844 0.000356843)
(-0.00511595 -0.155249 0.000329964)
(0.000199295 -0.00411878 1.11072e-05)
(0.000111353 -0.0106023 2.16002e-05)