/*--------------------------------*- C++ -*----------------------------------*\
| =========                 |                                                 |
| \\      /  F ield         | OpenFOAM: The Open Source CFD Toolbox           |
|  \\    /   O peration     | Version:  2306                                  |
|   \\  /    A nd           | Website:  www.openfoam.com                      |
|    \\/     M anipulation  |                                                 |
\*---------------------------------------------------------------------------*/
FoamFile
{
    version     2.0;
    format      ascii;
    arch        "LSB;label=32;scalar=64";
    class       volScalarField;
    location    "0.65";
    object      p;
}
// * * * * * * * * * * * * * * * * * * * * * * * * * * * * * * * * * * * * * //

dimensions      [0 2 -2 0 0 0 0];

internalField   nonuniform List<scalar> 
111542
(
62.0037
63.3073
66.4359
71.5604
78.7497
88.2052
100.08
114.405
130.696
147.55
162.434
171.356
170.242
157.829
137.087
113.723
91.8095
72.971
57.4041
44.9317
35.1117
27.5859
21.954
17.7021
14.487
12.0264
10.0408
8.49921
7.35236
6.47248
5.77621
5.20729
4.77792
4.41729
4.0732
3.7031
3.2531
2.71784
1.99647
0.997695
60.8167
62.077
65.1691
70.2278
77.4031
87.0011
99.3873
114.815
133.129
153.283
172.627
185.622
184.631
168.248
142.143
114.95
90.9862
71.096
55.1012
42.5751
32.9742
25.7534
20.3765
16.4501
13.5184
11.2452
9.46025
8.08264
7.02551
6.19663
5.53282
4.99486
4.5586
4.18393
3.83076
3.46078
3.03021
2.49387
1.78237
0.840893
58.4702
59.6592
62.6024
67.4707
74.5241
84.2619
97.3905
114.722
136.936
163.906
192.349
213.737
213.825
188.362
151.867
118.12
90.2693
68.2463
51.3671
38.6826
29.2756
22.686
18.0273
14.6268
11.842
9.56803
7.8513
6.60398
5.68462
4.99055
4.46134
4.05572
3.73889
3.47754
3.2366
2.97918
2.66081
2.22517
1.60067
0.716159
55.0337
56.0919
58.7341
63.1784
69.7974
79.3083
92.8557
112.145
139.607
178.539
213.664
256.455
262.324
221.512
168.904
127.719
94.0758
68.5851
50.0617
36.6807
22.9643
16.668
14.4117
13.1497
11.2247
9.18803
7.55637
6.32714
5.36623
4.59806
3.98902
3.51011
3.13183
2.82333
2.55537
2.29527
1.99743
1.59868
1.00586
0.107528
50.6414
51.4883
53.626
57.2905
62.91
71.3201
83.9619
103.265
133.28
178.094
255.098
341.685
366.106
258.255
172.808
123.265
83.1842
56.2703
38.7447
27.5552
20.0501
5.34678
4.70115
5.46418
4.9667
4.2395
3.72223
3.33984
3.01281
2.73316
2.50592
2.32508
2.18156
2.06202
1.95482
1.84379
1.69623
1.4549
0.995544
0.0125515
45.5181
46.0661
47.474
49.9392
53.8297
59.8733
69.3975
84.8597
111.038
165.742
259.491
454.753
621.151
247.879
171.968
113.545
66.1221
39.8858
24.7051
15.6824
12.2741
14.0387
13.0662
8.22797
4.97235
3.42031
2.57829
1.96848
1.50011
1.16455
0.936887
0.785926
0.689061
0.630142
0.597189
0.578658
0.558577
0.522258
0.470226
0.512997
39.9878
40.1625
40.6547
41.5605
43.056
45.4772
49.4085
55.8364
66.4532
105.757
181.234
410.323
1952.78
-419.724
194.173
76.8567
30.0777
14.8667
6.87842
-2.97775
-10.5512
15.1556
14.8821
9.2943
5.86384
4.47443
3.78899
3.26021
2.82666
2.49897
2.25717
2.07314
1.93007
1.81693
1.72687
1.65365
1.58268
1.50503
1.41622
1.36379
34.4656
34.2317
33.7274
32.9159
31.7269
29.9903
27.3065
22.7301
13.8598
15.971
-1.45888
-164.744
-1006.12
-1043.56
-314.485
-102.603
-47.2558
-26.7689
-17.4536
-10.987
-3.25756
-7.61451
-5.69472
-4.17271
-3.36798
-2.50452
-1.65529
-0.979539
-0.465636
-0.0544084
0.28727
0.57291
0.81165
1.0098
1.17062
1.29181
1.3565
1.33111
1.1455
0.666809
29.3384
28.769
27.3305
24.9092
21.2472
15.7948
7.53844
-5.41169
-26.6889
-50.0302
-123.962
-269.106
-479.511
-507.949
-322.293
-176.725
-101.537
-61.8706
-39.6245
-25.4755
-15.1908
-8.24559
-4.2095
-1.4115
0.266846
1.31286
2.04509
2.54973
2.87276
3.06937
3.18321
3.24036
3.25519
3.23464
3.17819
3.07775
2.90757
2.6162
2.10434
1.17538
25.1208
24.2326
22.0277
18.3192
12.7399
4.57649
-7.36473
-25.0463
-51.7501
-93.0932
-151.035
-224.025
-289.656
-297.852
-240.064
-166.533
-110.758
-74.8845
-51.6203
-35.503
-24.0532
-16.3709
-11.3348
-7.80135
-5.30396
-3.52393
-2.19341
-1.16901
-0.378572
0.233532
0.713778
1.09462
1.3948
1.62301
1.77734
1.84932
1.81345
1.62419
1.21788
0.544332
22.1004
20.9931
18.264
13.6907
6.86919
-2.90785
-16.73
-36.0776
-62.8129
-98.81
-144.07
-193.408
-232.038
-239.124
-208.493
-159.308
-114.5
-81.7424
-58.7418
-42.0025
-29.5687
-20.4706
-13.848
-9.02414
-5.51413
-2.96704
-1.10735
0.258072
1.25617
1.97816
2.49425
2.85589
3.09693
3.23573
3.27027
3.2095
3.02777
2.67597
2.07945
1.10771
20.5266
19.3221
16.3131
11.3288
3.89556
-6.59881
-21.1562
-40.907
-67.0035
-99.8108
-137.854
-175.751
-203.528
-209.562
-189.645
-153.335
-115.501
-84.752
-61.9094
-44.8909
-32.0564
-22.4816
-15.4784
-10.4102
-6.7877
-4.18036
-2.28619
-0.897896
0.125965
0.883286
1.44438
1.85868
2.15959
2.36953
2.43274
2.42246
2.29461
1.99628
1.47548
0.679433
61.5422
62.7911
65.8521
70.8236
77.7862
86.9292
98.4334
112.281
127.989
144.248
158.606
167.175
165.939
153.806
133.607
110.826
89.4876
71.1318
55.9831
43.8406
34.3252
27.0111
21.4811
17.3314
14.1841
11.7341
9.79456
8.28924
7.1457
6.27123
5.59203
5.05842
4.63929
4.28972
3.96645
3.62857
3.2312
2.72589
2.03253
1.04983
60.3629
61.5807
64.5839
69.4895
76.4395
85.7276
97.7086
112.618
130.309
149.794
168.512
181.198
179.95
163.925
138.508
112.027
88.6727
69.2913
53.733
41.5729
32.2716
25.231
19.9563
16.1056
13.2243
10.9733
9.2047
7.83934
6.79076
5.97477
5.3306
4.81756
4.40392
4.05364
3.73074
3.39749
3.01122
2.5177
1.84524
0.915207
58.0359
59.1826
62.033
66.7484
73.5744
82.9911
95.6822
112.437
133.929
160.061
187.649
208.333
208.601
183.781
148.21
115.297
88.0791
66.576
50.1513
37.8738
28.8626
22.407
17.7488
14.3532
11.5963
9.35362
7.6648
6.4437
5.54898
4.87767
4.36996
3.98455
3.68677
3.44444
3.22617
2.99739
2.716
2.32241
1.73191
0.829114
54.6299
55.6463
58.1985
62.4948
68.8907
78.0787
91.1717
109.838
136.474
174.362
209.974
252.033
257.836
217.532
166.032
125.547
92.3546
67.2465
49.0678
36.016
22.6819
16.689
14.2616
12.7898
10.7372
8.65817
7.04409
5.86434
4.96589
4.26346
3.71831
3.29757
2.97137
2.71021
2.48818
2.27681
2.03615
1.70178
1.16464
0.242771
50.2793
51.087
53.1439
56.6757
62.093
70.2057
82.4214
101.128
130.335
175.161
251.184
336.905
360.969
254.112
170.691
121.856
81.9742
55.2562
37.9319
26.9498
19.8908
5.84056
5.24465
5.85553
5.1633
4.29196
3.70024
3.28078
2.92909
2.62921
2.38494
2.18969
2.03603
1.91294
1.81143
1.72016
1.61464
1.43998
1.06269
0.123529
45.2085
45.7223
47.0651
49.4252
53.1566
58.9679
68.1627
83.1725
108.764
163.401
256.936
451.31
617.041
244.474
170.721
113.745
65.8346
39.4701
24.3216
15.2723
12.065
11.0135
10.7186
6.62976
3.79285
2.51065
1.89012
1.46381
1.13742
0.905156
0.749429
0.646067
0.580505
0.543606
0.531693
0.542152
0.572993
0.623154
0.700848
0.879428
39.7339
39.8884
40.3368
41.1743
42.5727
44.8623
48.6265
54.8687
65.3491
104.667
180.369
411.174
1943.39
185.297
79.6468
30.243
14.7079
6.81537
-2.5476
-8.26544
14.4128
13.8826
8.42013
5.19754
3.93679
3.30729
2.79714
2.36238
2.02018
1.75645
1.54895
1.38634
1.26175
1.17316
1.11998
1.09995
1.11305
1.1599
1.24418
34.2587
34.0288
33.505
32.6672
31.4516
29.6971
27.0276
22.5551
13.9984
16.3083
-0.345109
-160.305
-987.066
-1034.73
-309.595
-100.908
-46.3621
-26.4515
-17.4262
-11.0393
-3.80811
-8.53495
-6.80806
-5.21333
-4.15137
-3.06924
-2.08762
-1.32978
-0.759344
-0.309613
0.0570074
0.359124
0.610596
0.821263
0.99956
1.1493
1.26258
1.31137
1.22202
0.813123
29.2145
28.6298
27.192
24.7863
21.1622
15.7907
7.69705
-4.9412
-25.6458
-48.7868
-121.15
-264.156
-472.336
-498.649
-316.784
-173.352
-99.4325
-60.6915
-39.064
-25.3089
-15.3343
-8.9186
-4.9726
-2.10756
-0.300023
0.843421
1.62518
2.15162
2.48251
2.67778
2.78432
2.83183
2.83794
2.81278
2.7596
2.67489
2.53818
2.30213
1.86977
1.04639
25.0321
24.1444
21.9641
18.3018
12.8071
4.79536
-6.88767
-24.1392
-50.1439
-90.3888
-146.825
-218.09
-282.559
-290.401
-233.776
-162.062
-107.891
-73.185
-50.7117
-35.1378
-24.0777
-16.694
-11.7572
-8.23351
-5.72238
-3.92254
-2.57095
-1.52732
-0.721814
-0.0996275
0.38671
0.771107
1.07423
1.30668
1.47015
1.55871
1.55045
1.40281
1.05461
0.456007
22.0429
20.9485
18.2517
13.7403
7.03785
-2.54839
-16.0663
-34.9457
-60.9841
-96.0102
-140.044
-188.072
-225.763
-232.797
-202.906
-155.086
-111.603
-79.8873
-57.6332
-41.427
-29.378
-20.5507
-14.0818
-9.34516
-5.88205
-3.35518
-1.49994
-0.132558
0.868136
1.59109
2.1064
2.46596
2.70452
2.84245
2.88617
2.83652
2.67351
2.35425
1.81148
0.936033
20.4879
19.2889
16.3289
11.3985
4.1146
-6.17855
-20.4162
-39.7002
-65.099
-97.0411
-134.059
-170.937
-198.006
-204.008
-184.713
-149.339
-112.578
-82.7947
-60.6772
-44.1918
-31.739
-22.4348
-15.6123
-10.6696
-7.10163
-4.51846
-2.63497
-1.24943
-0.224532
0.534727
1.09717
1.51152
1.8098
2.00844
2.10415
2.10542
1.99012
1.7177
1.24402
0.541397
60.6239
61.7917
64.6751
69.3471
75.8755
84.429
95.1693
108.057
122.63
137.678
150.898
158.681
157.307
145.713
126.547
104.962
84.7449
67.3511
53.0128
41.532
32.5354
25.5767
20.2653
16.2766
13.2654
10.9308
9.09638
7.67078
6.57876
5.74238
5.09491
4.5878
4.18395
3.84873
3.54674
3.24045
2.88793
2.43735
1.82036
0.949722
59.4642
60.6008
63.4213
68.0253
74.5348
83.2146
94.3864
108.257
124.686
142.757
160.104
171.709
170.444
155.213
131.145
106.084
83.9496
65.5792
50.8656
39.3918
30.6093
23.8544
18.7473
15.0632
12.3475
10.2267
8.54677
7.23525
6.21707
5.42003
4.78952
4.28708
3.88132
3.5421
3.23909
2.93885
2.60184
2.17579
1.59402
0.788671
57.1769
58.2418
60.9088
65.3224
71.7007
80.4828
92.3002
107.889
127.889
152.247
178.018
197.483
197.53
173.994
140.404
109.249
83.3709
62.9492
47.4313
35.9057
27.5204
21.2098
16.5369
13.2575
10.7052
8.64055
7.06481
5.90726
5.04723
4.39463
3.89722
3.51803
3.22525
2.99196
2.79209
2.59782
2.37223
2.06008
1.57387
0.781678
53.8328
54.7694
57.1454
61.15
67.1052
75.6514
87.8284
105.211
130.091
165.658
200.786
241.037
246.572
207.835
158.816
120.118
88.0778
63.933
46.5763
34.2021
21.1427
15.3153
13.0287
11.6483
9.64679
7.58555
5.95852
4.74886
3.81931
3.09471
2.53874
2.11905
1.80565
1.57152
1.39538
1.25554
1.12092
0.935623
0.593965
-0.0896513
49.5671
50.3011
52.2002
55.4704
60.4868
68.0043
79.3499
96.7973
124.221
167.927
241.142
324.267
347.752
243.985
165.152
117.78
78.4146
52.2956
35.5525
24.9827
18.0039
2.17591
3.06669
4.68156
4.28087
3.41965
2.77562
2.29198
1.87777
1.52673
1.24599
1.0299
0.871931
0.762127
0.697609
0.675581
0.689452
0.705203
0.606264
-0.0048452
44.603
45.0544
46.2704
48.4231
51.8375
57.1789
65.6901
79.7123
103.918
157.368
249.252
440.807
603.503
235.719
173.243
112.782
63.6852
36.9848
22.087
13.3667
8.07708
4.14731
4.88529
1.8608
-0.625052
-1.84244
-2.41928
-2.77803
-3.02122
-3.16002
-3.21287
-3.20655
-3.14494
-3.03818
-2.88421
-2.67401
-2.38491
-1.97548
-1.35321
-0.232184
39.245
39.3614
39.726
40.4299
41.6338
43.6527
47.0534
52.8501
62.8866
101.692
177.336
409.925
1930.96
226.699
78.9921
29.9738
13.7991
5.70304
-3.42456
-8.01307
14.5771
12.5953
6.21506
2.59178
1.1068
0.353306
-0.193696
-0.606716
-0.89508
-1.08582
-1.20612
-1.27149
-1.28206
-1.23573
-1.12107
-0.91501
-0.581334
-0.05219
0.777365
33.8927
33.6452
33.0853
32.1992
30.9295
29.1304
26.4692
22.1615
14.1596
16.9559
2.34512
-150.762
-975.495
-1014.03
-297.849
-95.3879
-43.9045
-25.6867
-17.5771
-11.605
-3.92004
-7.99572
-7.54056
-6.78995
-5.90507
-4.80912
-3.7876
-2.97243
-2.33326
-1.81549
-1.38402
-1.01849
-0.704195
-0.426566
-0.166588
0.0894225
0.352614
0.615144
0.82104
0.755893
28.9686
28.3794
26.9509
24.5779
21.0281
15.8125
8.03195
-3.99739
-23.5522
-45.6935
-114.408
-251.828
-454.29
-480.193
-302.901
-164.845
-94.6621
-58.2499
-38.019
-25.0727
-15.5137
-9.57524
-5.94894
-3.26303
-1.52562
-0.423739
0.334944
0.861451
1.21083
1.4357
1.58059
1.67394
1.73352
1.76982
1.79292
1.805
1.79589
1.7294
1.51268
0.925944
24.8798
24.0054
21.8726
18.3054
12.9804
5.26702
-5.90759
-22.3051
-46.9004
-84.8603
-138.114
-205.671
-267.3
-275.047
-221.252
-153.369
-102.424
-69.9544
-48.9445
-34.3584
-23.9998
-17.138
-12.2605
-8.7674
-6.35201
-4.63956
-3.33033
-2.29332
-1.47457
-0.828784
-0.312157
0.106858
0.449064
0.723609
0.938383
1.09098
1.16574
1.12602
0.908402
0.430772
21.958
20.8892
18.2645
13.8883
7.41723
-1.7909
-14.7052
-32.6505
-57.2951
-90.3549
-131.894
-177.299
-213.14
-220.036
-191.891
-146.788
-105.909
-76.1837
-55.3295
-40.1184
-28.7876
-20.4509
-14.2213
-9.64234
-6.32146
-3.90573
-2.12044
-0.79031
0.194498
0.915933
1.44042
1.81756
2.08141
2.25205
2.34043
2.34583
2.25252
2.02371
1.59416
0.844835
20.4344
19.2699
16.3955
11.6152
4.59182
-5.28964
-18.8876
-37.2215
-61.2699
-91.4406
-126.367
-161.194
-186.858
-192.72
-174.681
-141.42
-106.866
-78.9148
-58.1528
-42.6547
-30.9221
-22.1238
-15.6194
-10.8661
-7.41895
-4.92367
-3.1016
-1.75208
-0.743292
0.013855
0.583826
1.01301
1.3322
1.55791
1.6961
1.74314
1.68327
1.4839
1.1015
0.492936
59.2943
60.3504
62.973
67.2182
73.129
80.8386
90.4701
101.961
114.874
128.111
139.609
146.161
144.564
133.768
116.165
96.3989
77.8703
61.9126
48.7658
38.2495
29.9999
23.5657
18.5687
14.75
11.8567
9.63333
7.90423
6.56767
5.54721
4.76954
4.17275
3.71136
3.35022
3.05849
2.80578
2.5604
2.28622
1.93774
1.45621
0.769799
58.1634
59.1868
61.7448
65.9174
71.7964
79.6002
89.5948
101.939
116.483
132.397
147.597
157.444
156.075
142.066
120.104
97.2496
77.0028
60.1775
46.7283
36.2673
28.2526
21.9411
17.0369
13.4549
10.8408
8.83088
7.25111
6.02274
5.07737
4.34729
3.77887
3.33422
2.9837
2.70032
2.45876
2.23207
1.98749
1.68012
1.25025
0.634326
55.9347
56.886
59.2915
63.2721
69.0055
76.866
87.3977
101.236
118.936
140.448
163.161
180.43
180.004
158.537
128.154
99.8406
76.1529
57.4768
43.3766
33.0074
25.5987
19.5263
14.6302
11.2809
8.90982
7.08314
5.68904
4.65732
3.8924
3.31781
2.8865
2.56502
2.32647
2.14738
2.01001
1.89459
1.77489
1.60475
1.2994
0.698431
52.6822
53.5088
55.6335
59.218
64.5338
72.1365
82.9392
98.3367
120.38
151.982
185.409
222.119
226.917
190.98
146.259
110.744
80.8771
58.4943
42.5647
31.3411
19.2597
13.7627
10.6317
8.79305
6.97035
5.27526
3.95627
2.97916
2.23413
1.65816
1.21794
0.890436
0.651987
0.482517
0.3758
0.324038
0.316282
0.317475
0.233396
-0.184117
48.5415
49.1766
50.8502
53.7407
58.1695
64.7984
74.8067
90.2304
114.6
155.625
223.02
300.539
322.451
224.407
153.313
109.25
71.5179
46.9543
31.5028
21.8545
15.9921
-1.27964
-0.112895
1.7775
1.69037
1.06745
0.569266
0.178786
-0.166683
-0.463876
-0.705876
-0.887036
-1.01751
-1.09932
-1.12001
-1.06393
-0.908488
-0.645601
-0.349443
-0.449012
43.7321
44.1044
45.1397
46.9889
49.9322
54.5587
61.9793
74.3225
95.9222
146.308
233.858
418.318
574.344
213.647
164.772
107.446
58.4249
32.311
18.0699
9.60374
7.11996
-4.70938
-1.51832
-1.79523
-2.85326
-3.43901
-3.73068
-3.97525
-4.20799
-4.40511
-4.55717
-4.67602
-4.74332
-4.75603
-4.69199
-4.51386
-4.15654
-3.50257
-2.34197
-0.326941
38.553
38.6146
38.8596
39.3685
40.2796
41.8706
44.6551
49.5922
58.4946
95.4403
169.215
401.721
1893.68
203.047
85.3125
28.7213
10.4487
1.954
-6.71653
-13.0945
12.1382
10.036
3.71981
0.0937208
-1.57156
-2.53975
-3.26667
-3.82758
-4.24247
-4.54093
-4.74154
-4.86629
-4.91917
-4.87388
-4.69965
-4.33294
-3.65999
-2.47593
-0.432608
33.3867
33.112
32.5024
31.5449
30.1866
28.2944
25.5839
21.391
13.9766
17.0852
5.10299
-135.539
-921.309
-970.43
-273.247
-86.3726
-41.8896
-26.4374
-19.4065
-13.7565
-6.18527
-8.36126
-7.76253
-7.02258
-6.21744
-5.28017
-4.41171
-3.71973
-3.18818
-2.77362
-2.44278
-2.16174
-1.93395
-1.73101
-1.51571
-1.25732
-0.916332
-0.452182
0.134635
0.61633
28.6359
28.0447
26.6329
24.3051
20.8546
15.8459
8.48573
-2.70832
-20.6199
-41.0322
-103.877
-231.009
-420.917
-445.137
-278.361
-151.362
-87.8471
-55.137
-36.9567
-25.2386
-16.6057
-11.6623
-7.32084
-4.11865
-2.37806
-1.4504
-0.851496
-0.445601
-0.190296
-0.0386641
0.0526757
0.112014
0.15221
0.188699
0.238143
0.311801
0.41514
0.53777
0.613857
0.45099
24.6879
23.8364
21.7726
18.343
13.2634
5.96745
-4.4882
-19.6636
-42.1945
-76.6764
-124.934
-186.372
-242.783
-250.225
-201.651
-140.348
-94.5269
-65.3472
-46.4222
-33.272
-23.9978
-17.9602
-12.8183
-9.0549
-6.65145
-5.0488
-3.83235
-2.86258
-2.09788
-1.49757
-1.01876
-0.62948
-0.310474
-0.0482704
0.170815
0.35018
0.484086
0.549576
0.493048
0.231299
21.8634
20.8357
18.3163
14.1366
7.99701
-0.672175
-12.7265
-29.3292
-51.9441
-82.0838
-119.82
-161.082
-193.835
-200.405
-175.147
-134.502
-97.6792
-70.8683
-51.9947
-38.1899
-27.8989
-20.2893
-14.3641
-9.90194
-6.68898
-4.38883
-2.70397
-1.45409
-0.533458
0.136676
0.62139
0.969874
1.21579
1.38068
1.47907
1.51333
1.47305
1.33099
1.0356
0.505583
20.3915
19.2745
16.5241
11.9694
5.31834
-3.97374
-16.6643
-33.6391
-55.7437
-83.3135
-115.11
-146.795
-170.233
-175.798
-159.709
-129.815
-98.6524
-73.367
-54.5204
-40.408
-29.6957
-21.6212
-15.5559
-11.0141
-7.6781
-5.26871
-3.51985
-2.22812
-1.26349
-0.540909
0.00146849
0.409229
0.71321
0.932068
1.075
1.14092
1.11761
0.980784
0.697554
0.250559
57.633
58.5543
60.8561
64.5752
69.725
76.3913
84.6445
94.3868
105.197
116.105
125.356
130.265
128.289
118.516
102.996
85.6418
69.3236
55.2099
43.5511
34.2133
26.888
21.1815
16.7244
13.2549
10.5864
8.53208
6.93994
5.71035
4.7723
4.05256
3.49723
3.06677
2.73025
2.46108
2.23348
2.02262
1.80082
1.53211
1.16996
0.643916
56.5388
57.4261
59.6617
63.3025
68.4024
75.1185
83.6392
94.0488
106.16
119.225
131.527
138.93
137.2
124.829
105.774
85.9393
68.2372
53.4394
41.5902
32.3831
25.3704
19.8837
15.5597
12.2521
9.76174
7.83884
6.32868
5.15071
4.25293
3.55826
3.01771
2.59686
2.26819
2.00677
1.79419
1.60973
1.42878
1.21856
0.932713
0.510573
54.3851
55.2004
57.2851
60.7305
65.663
72.3695
81.2684
92.8365
107.462
125.015
143.275
157.001
155.823
137.305
111.485
87.2354
66.6947
50.4109
38.1361
29.2263
23.218
18.1984
13.6063
10.26
7.97217
6.2846
4.99682
4.02214
3.27766
2.71532
2.28753
1.96066
1.71515
1.53184
1.40082
1.31124
1.25117
1.19301
1.07187
0.709887
51.2494
51.9448
53.7609
56.8241
61.3399
67.7462
76.7671
89.5034
107.561
133.222
163.232
193.856
197.179
165.801
127.715
96.9985
70.6411
50.9953
37.125
27.6219
18.7958
16.0569
11.033
7.34089
4.88719
3.11377
1.82529
0.912165
0.256116
-0.219389
-0.573505
-0.836333
-1.02138
-1.14467
-1.20039
-1.17736
-1.06203
-0.847906
-0.565151
-0.401269
47.2672
47.7858
49.1822
51.5987
55.285
60.7698
68.9967
81.5997
101.422
137.556
194.273
260.675
278.766
191.894
133.757
94.7677
60.5854
38.94
25.6608
17.8365
15.0598
7.31357
4.8804
3.2906
1.77068
0.501242
-0.471914
-1.23796
-1.84953
-2.32263
-2.69493
-2.97419
-3.17387
-3.30612
-3.34993
-3.26372
-2.9957
-2.46228
-1.604
-0.734387
42.6553
42.9348
43.7477
45.2153
47.5567
51.2409
57.1568
67.0287
84.4043
128.621
206.428
373.351
516.624
176.219
155.53
95.3091
47.6545
23.7852
11.4367
4.48961
-1.4394
-28.4492
-26.4685
-25.1696
-24.3832
-23.3374
-22.2877
-21.4263
-20.7467
-20.1959
-19.719
-19.3019
-18.8991
-18.4639
-17.9579
-17.3149
-16.4076
-14.9735
-12.4203
-7.23554
37.7007
37.698
37.7962
38.0591
38.5893
39.597
41.4878
45.0361
51.7542
84.239
151.191
371.12
1827.68
247.025
72.7629
15.5234
-0.808096
-7.81472
-14.1962
-23.7016
-3.51287
-5.39268
-9.82026
-12.0502
-12.8453
-13.1847
-13.4018
-13.5435
-13.6097
-13.6055
-13.5573
-13.43
-13.2261
-12.9219
-12.4517
-11.6948
-10.4027
-8.09379
-3.97207
32.7666
32.4644
31.7949
30.7458
29.2624
27.2196
24.3672
20.1473
13.1448
15.8383
5.97789
-119.062
-834.687
-862.268
-237.282
-79.676
-43.8904
-30.9121
-24.472
-18.9744
-13.0638
-21.5031
-17.317
-13.4223
-11.2299
-9.7255
-8.57435
-7.73036
-7.12783
-6.69179
-6.36562
-6.10165
-5.88317
-5.67291
-5.42714
-5.09071
-4.58555
-3.78661
-2.54031
-0.827778
28.2384
27.6509
26.2597
23.9838
20.645
15.8717
8.99463
-1.21195
-17.1302
-35.1712
-89.5522
-199.798
-365.797
-385.798
-241.308
-133.422
-79.7636
-51.8084
-36.062
-26.0846
-20.0199
-18.6018
-12.4288
-7.46142
-4.96157
-3.68193
-2.84814
-2.2675
-1.88238
-1.63244
-1.46377
-1.34259
-1.24836
-1.15354
-1.0369
-0.874005
-0.635421
-0.292965
0.136029
0.432368
24.4719
23.651
21.6735
18.4103
13.6242
6.83826
-2.73959
-16.4016
-36.3179
-66.2299
-107.555
-159.889
-207.868
-214.829
-174.644
-123.352
-84.6212
-59.6071
-43.1948
-31.8108
-24.0492
-19.4652
-14.4019
-10.3253
-7.68523
-5.92266
-4.58726
-3.53105
-2.70763
-2.06986
-1.5695
-1.1686
-0.845523
-0.57548
-0.341848
-0.131703
0.0618838
0.232628
0.338188
0.25321
21.775
20.7977
18.41
14.4723
8.73907
0.732385
-10.2611
-25.1957
-45.2508
-71.6164
-104.263
-139.699
-167.913
-173.898
-152.893
-118.666
-87.3217
-64.1791
-47.6911
-35.5687
-26.5691
-19.9866
-14.7196
-10.5203
-7.37865
-5.08876
-3.39281
-2.12014
-1.16967
-0.466478
0.0522283
0.434628
0.714498
0.9166
1.05715
1.14336
1.17182
1.1228
0.947944
0.535838
20.3686
19.3117
16.7141
12.4369
6.24249
-2.3241
-13.8908
-29.1777
-48.8453
-73.1016
-100.821
-128.286
-148.621
-153.675
-140.209
-114.955
-88.2975
-66.3883
-49.8743
-37.4217
-27.9442
-20.7968
-15.3796
-11.1955
-8.02064
-5.67431
-3.9416
-2.64137
-1.65506
-0.905109
-0.33432
0.100866
0.431365
0.677755
0.851371
0.955115
0.981144
0.909196
0.705182
0.318501
55.7463
56.5214
58.4675
61.6014
65.9054
71.4125
78.1322
85.9218
94.3669
102.623
109.268
112.302
109.814
101.198
88.133
73.6301
59.9217
47.961
37.9822
29.898
23.4643
18.399
14.4546
11.4055
9.05024
7.2152
5.77658
4.65567
3.80462
3.14441
2.63196
2.2338
1.92361
1.68008
1.47953
1.29988
1.12346
0.924556
0.684135
0.348667
54.6944
55.4352
57.3139
60.3629
64.5962
70.1008
76.9733
85.2029
94.5343
104.248
112.843
117.632
115.277
104.809
89.2962
73.1421
58.542
46.1448
36.07
28.0842
21.7945
16.9035
13.1146
10.2258
8.01578
6.28249
4.903
3.79501
3.00382
2.37398
1.87765
1.49443
1.19885
0.962395
0.77997
0.637711
0.510628
0.381719
0.22788
0.0936635
52.627
53.2979
55.0278
57.8774
61.9168
67.3308
74.3857
83.3523
94.3741
107.144
119.93
128.613
126.377
111.434
91.2527
72.2539
55.9152
42.6052
32.3351
24.5441
18.4276
14.0682
10.509
7.79792
5.78649
4.24759
3.08441
2.21127
1.48546
0.961916
0.581238
0.301863
0.103955
-0.0237492
-0.0997951
-0.124514
-0.102743
-0.0375327
0.0511872
0.121087
49.6247
50.1839
51.6592
54.1412
57.7607
62.8161
69.7942
79.4018
92.5852
110.462
134.895
156.251
157.181
132.549
103.134
78.9837
57.8663
41.8919
30.429
22.3044
11.578
8.8218
5.8522
3.27902
1.27423
-0.320549
-1.56913
-2.47207
-3.12457
-3.56248
-3.85781
-4.0513
-4.16008
-4.20105
-4.16787
-4.03834
-3.79056
-3.37497
-2.71492
-1.64431
45.8282
46.223
47.314
49.2013
52.0511
56.2292
62.3732
71.5598
85.5795
114.176
153.959
200.085
209.259
142.067
101.328
71.8995
45.0972
28.0327
17.4813
11.294
9.77301
-2.12088
-3.74796
-4.93237
-6.22128
-7.1861
-7.9806
-8.65888
-9.16369
-9.42424
-9.55151
-9.60755
-9.57695
-9.46504
-9.2929
-8.98571
-8.47062
-7.60238
-6.14465
-3.76801
41.4444
41.6245
42.1929
43.2337
44.8924
47.4831
51.5978
58.3557
69.9809
103.825
162.561
287.96
394.084
106.12
116.423
58.3678
20.2672
2.0281
-7.0422
-11.4633
-8.91075
-22.1728
-24.953
-29.8513
-31.6206
-31.7581
-31.2913
-30.5986
-29.8396
-29.1446
-28.4614
-27.7477
-27.0386
-26.3132
-25.4905
-24.5047
-23.2077
-21.2503
-17.8157
-10.8851
36.7518
36.6786
36.6162
36.6032
36.6946
37.0133
37.797
39.4925
42.948
67.2514
118.104
299.507
1647.39
255.691
-17.7848
-60.2821
-67.9055
-68.601
-66.9729
-62.8369
-36.5395
-35.2608
-37.1251
-37.1979
-36.1967
-35.0206
-33.9255
-32.9254
-32.0012
-31.1119
-30.2593
-29.406
-28.5043
-27.5579
-26.4657
-25.0644
-22.9711
-19.2952
-11.7157
32.0887
31.7497
31.0144
29.8613
28.2295
25.9941
22.9173
18.5159
11.6817
12.8505
4.28741
-91.7486
-659.028
-653.718
-194.145
-82.3815
-54.9897
-43.2444
-36.6388
-30.9747
-27.9593
-30.7789
-26.5445
-22.4594
-20.0199
-18.2665
-16.9133
-15.8851
-15.0942
-14.4693
-13.9551
-13.5135
-13.1282
-12.7169
-12.2626
-11.707
-10.9429
-9.77402
-7.83072
-4.34902
27.8088
27.2284
25.8608
23.6407
20.4219
15.8967
9.5278
0.381975
-13.1877
-28.4745
-71.6624
-155.356
-279.705
-296.539
-191.692
-111.729
-70.2526
-47.5318
-34.227
-25.8552
-23.1483
-18.2993
-14.7265
-11.6764
-9.77231
-8.50608
-7.5407
-6.78059
-6.18545
-5.71806
-5.34289
-5.03065
-4.7651
-4.51276
-4.24875
-3.94238
-3.54689
-2.99553
-2.19761
-1.04332
24.2534
23.4711
21.5879
18.5086
14.0475
7.82269
-0.785152
-12.7531
-29.6638
-54.1954
-87.0614
-127.358
-163.43
-169.886
-141.004
-102.587
-72.3305
-51.9253
-38.0662
-28.2325
-21.374
-17.5696
-14.1284
-11.186
-8.96434
-7.30363
-6.00569
-4.9709
-4.14868
-3.49535
-2.97134
-2.54338
-2.19049
-1.88651
-1.61302
-1.35367
-1.09567
-0.829088
-0.554726
-0.281522
21.7057
20.7855
18.5463
14.8795
9.59939
2.32982
-7.48187
-20.5489
-37.7018
-59.7001
-86.3018
-114.583
-136.99
-142.016
-126.346
-100.121
-75.2385
-56.2199
-42.2838
-31.8486
-23.9949
-18.272
-13.8924
-10.4372
-7.78849
-5.79929
-4.29591
-3.14771
-2.26805
-1.5946
-1.07769
-0.679457
-0.372016
-0.134014
0.0490405
0.184792
0.272003
0.299281
0.243465
0.0812324
20.3768
19.3878
16.9628
12.9966
7.31233
-0.444816
-10.758
-24.1575
-41.0819
-61.564
-84.5629
-107.035
-123.569
-127.879
-117.6
-97.6869
-76.268
-58.1726
-44.1889
-33.4626
-25.2032
-18.9409
-14.2361
-10.6494
-7.91457
-5.8481
-4.28671
-3.0962
-2.18153
-1.47678
-0.933202
-0.512817
-0.188091
0.0594192
0.240784
0.359989
0.410677
0.377044
0.240984
0.011475
53.763
54.3896
55.9741
58.5116
61.9561
66.2916
71.4699
77.3102
83.4123
89.0629
93.1721
94.3531
91.3633
83.9342
73.346
61.7241
50.6761
40.9146
32.6439
25.8338
20.3299
15.9512
12.5435
9.96194
7.98837
6.43761
5.21032
4.25175
3.5165
2.94923
2.51058
2.17116
1.90663
1.69553
1.51902
1.35877
1.19403
1.00013
0.747899
0.401927
52.7571
53.3495
54.8668
57.3139
60.6681
64.9498
70.168
76.2232
82.8042
89.248
94.3667
96.3244
93.1895
84.5767
72.6645
60.3024
48.9534
39.0912
30.8743
24.2066
18.8391
14.5616
11.2782
8.89993
7.12211
5.72635
4.62044
3.75054
3.08108
2.55386
2.13681
1.80757
1.54692
1.33714
1.16649
1.02301
0.889153
0.744042
0.558913
0.303569
50.7839
51.3079
52.681
54.9263
58.0622
62.1746
67.3805
73.7507
81.1927
89.242
96.6236
100.496
96.709
84.8019
70.0789
56.505
44.6064
34.4779
26.2755
19.7547
14.4911
10.3973
7.89044
6.14967
4.67843
3.47854
2.58435
1.9396
1.46507
1.12615
0.88498
0.714111
0.598015
0.524361
0.484537
0.476941
0.497636
0.533801
0.548029
0.428547
47.9275
48.3455
49.4797
51.3756
54.0911
57.7881
62.7182
69.1991
77.5507
87.9356
98.7685
106.773
101.409
82.5431
64.4879
50.343
38.0603
28.1722
20.5996
14.4594
8.23349
2.02983
2.16098
2.59147
2.00437
1.12455
0.357972
-0.243298
-0.710896
-1.06242
-1.32525
-1.51656
-1.64214
-1.70864
-1.71191
-1.63663
-1.46621
-1.17711
-0.763312
-0.293574
44.3283
44.5984
45.3827
46.7409
48.7474
51.6104
55.6588
61.3881
69.4336
88.9225
108.869
128.886
124.052
84.5503
61.2026
46.302
29.9368
18.3781
10.9422
5.82232
0.640382
-13.4108
-10.9201
-8.06783
-6.8013
-6.15259
-5.72489
-5.43446
-5.23148
-5.07196
-4.94865
-4.84891
-4.75497
-4.6519
-4.50488
-4.26735
-3.87829
-3.24214
-2.27217
-1.07702
40.1885
40.2698
40.5927
41.2063
42.178
43.668
45.9633
49.5418
55.1654
76.1145
101.918
145.579
166.728
28.9934
24.5552
6.21938
-4.11603
-8.51861
-11.5035
-13.8049
-20.053
-12.3499
-14.2049
-16.571
-17.3999
-17.4927
-17.3282
-17.0515
-16.715
-16.3501
-15.9548
-15.5154
-15.0637
-14.5998
-14.0662
-13.4053
-12.5098
-11.1534
-8.91708
-5.14487
35.7729
35.635
35.412
35.1216
34.7726
34.3971
34.0505
33.8073
33.7112
47.3235
58.5081
128.259
167.305
-713.896
-134.263
-90.7064
-63.3978
-57.1176
-53.0242
-50.6465
-68.3061
-39.6912
-37.6938
-35.7783
-33.9281
-32.0748
-30.4106
-28.9755
-27.7254
-26.6156
-25.6058
-24.6733
-23.799
-22.9267
-22.0216
-21.0168
-19.7934
-18.0663
-15.2136
-9.65547
31.3962
31.0296
30.2301
28.973
27.1955
24.7657
21.4414
16.7677
9.8318
8.5058
-12.5528
-79.8565
-303.67
-259.1
-111.052
-61.5056
-38.2544
-27.4093
-21.6422
-17.2213
-9.21904
5.75374
2.40252
-1.47167
-3.17344
-4.00615
-4.55772
-4.94392
-5.19896
-5.35755
-5.44641
-5.48855
-5.48039
-5.39927
-5.23038
-4.95013
-4.49084
-3.7258
-2.49051
-0.822712
27.3846
26.8109
25.472
23.3149
20.2236
15.9501
10.0684
1.84065
-10.1077
-28.5405
-51.6847
-105.209
-175.966
-189.617
-132.714
-84.3007
-55.7346
-38.2844
-27.4364
-19.7632
-9.87311
-1.17151
-2.39723
-3.96478
-4.05354
-3.64298
-3.22256
-2.85025
-2.51835
-2.2307
-1.98745
-1.77994
-1.60177
-1.44112
-1.26802
-1.06115
-0.79505
-0.435347
0.011249
0.366144
24.0531
23.3098
21.5304
18.6457
14.5209
8.86956
1.24282
-9.03321
-22.9325
-41.6998
-65.9722
-93.7664
-117.636
-122.992
-105.835
-80.4694
-58.7415
-43.0239
-31.7553
-23.1641
-15.9409
-11.1396
-8.51354
-6.61344
-4.89432
-3.47862
-2.41529
-1.62621
-1.03139
-0.580182
-0.236984
0.0269347
0.23025
0.392201
0.532906
0.661834
0.781615
0.880919
0.904543
0.676646
21.6682
20.8102
18.7255
15.3416
10.5305
4.0167
-4.59269
-15.7711
-29.9939
-47.525
-67.8556
-88.8292
-104.98
-109.156
-99.0481
-80.8495
-62.545
-47.7067
-36.3336
-27.4843
-20.4577
-15.0514
-10.9431
-7.93114
-5.6728
-3.95062
-2.64088
-1.64315
-0.8777
-0.287937
0.165968
0.514071
0.778597
0.976464
1.11914
1.21125
1.24631
1.20104
1.0219
0.595108
20.4232
19.5058
17.2627
13.6225
8.46793
1.54191
-7.49525
-18.9827
-33.135
-49.7939
-67.9852
-85.3653
-97.9723
-101.504
-94.4071
-79.9518
-63.7377
-49.4497
-38.0009
-28.9674
-21.8167
-16.2276
-11.9612
-8.76059
-6.3276
-4.44281
-2.98039
-1.85153
-0.982153
-0.313065
0.200283
0.591433
0.88561
1.10009
1.24471
1.32218
1.32281
1.22264
0.975911
0.503689
51.8185
52.3059
53.5489
55.5276
58.1707
61.4246
65.1993
69.2953
73.3484
76.786
78.8252
78.5739
75.3334
69.0836
60.7354
51.6816
42.9977
35.2075
28.4975
22.8938
18.3261
14.6858
11.8571
9.69478
8.00752
6.65126
5.55683
4.68489
3.99825
3.45737
3.02892
2.6869
2.40944
2.17687
1.97108
1.77347
1.56066
1.3043
0.96914
0.512409
50.8593
51.3139
52.4903
54.3774
56.9158
60.0763
63.8019
67.9379
72.1614
75.9106
78.3279
78.3039
74.8598
67.9997
59.0972
49.8487
41.1981
33.5014
26.9339
21.5184
17.1484
13.7063
11.1053
9.15684
7.62461
6.37771
5.36629
4.55276
3.89932
3.37172
2.9426
2.59138
2.3011
2.05588
1.841
1.64218
1.43906
1.20341
0.895588
0.466109
48.9815
49.3709
50.4074
52.095
54.4003
57.3331
60.8978
65.0278
69.4961
73.7895
76.9241
77.3007
73.1351
64.6361
54.6497
45.3456
36.9875
29.537
23.235
18.1249
14.0673
11.0299
9.05447
7.52885
6.14673
4.96464
4.04009
3.33978
2.80569
2.39532
2.08081
1.84013
1.65661
1.51671
1.40901
1.32403
1.24694
1.14998
0.976374
0.604615
46.2718
46.5635
47.3789
48.7337
50.6291
53.1137
56.2637
60.1272
64.6408
69.4455
73.518
74.5103