/*--------------------------------*- C++ -*----------------------------------*\
| =========                 |                                                 |
| \\      /  F ield         | OpenFOAM: The Open Source CFD Toolbox           |
|  \\    /   O peration     | Version:  2306                                  |
|   \\  /    A nd           | Website:  www.openfoam.com                      |
|    \\/     M anipulation  |                                                 |
\*---------------------------------------------------------------------------*/
FoamFile
{
    version     2.0;
    format      ascii;
    arch        "LSB;label=32;scalar=64";
    class       surfaceScalarField;
    location    "0.65";
    object      phi;
}
// * * * * * * * * * * * * * * * * * * * * * * * * * * * * * * * * * * * * * //

dimensions      [0 3 -1 0 0 0 0];

oriented        oriented;

internalField   nonuniform List<scalar> 
338621
(
24.9949
0.00257296
0.00116884
24.9871
0.00530758
0.0024892
24.9746
0.00831543
0.0040339
24.9571
0.0114606
0.0059328
24.9335
0.0148555
0.00848793
24.9005
0.0209141
0.0118576
24.8536
0.0304195
0.0161558
24.7905
0.0409855
0.0216924
24.7286
0.03269
0.0287032
24.6856
0.00530162
0.0370999
24.6577
-0.0193988
0.0467307
24.5844
0.0156208
0.0570948
24.6136
-0.0977724
0.0678644
24.7449
-0.2099
0.0780378
24.7875
-0.130179
0.0870031
24.8204
-0.127817
0.0944008
24.8495
-0.129625
0.10022
24.8726
-0.128241
0.104838
24.8917
-0.127578
0.10827
24.9178
-0.136984
0.110794
24.947
-0.141632
0.11238
24.9691
-0.135555
0.113459
24.9859
-0.131015
0.114204
24.9996
-0.128325
0.114574
25.0113
-0.12646
0.114789
25.0212
-0.12478
0.114922
25.0298
-0.123619
0.114956
25.0373
-0.122437
0.114926
25.0438
-0.121403
0.114958
25.0495
-0.120784
0.115044
25.0547
-0.120335
0.115173
25.0595
-0.120069
0.115314
25.0638
-0.119908
0.115561
25.0678
-0.119842
0.115871
25.0715
-0.119878
0.116171
25.0753
-0.120305
0.116461
25.0793
-0.120607
0.116667
25.0834
-0.12096
0.116834
25.0879
-0.1214
0.116898
-0.122191
0.116596
24.9949
0.00511798
0.00114666
24.987
0.0107315
0.00241223
24.9741
0.0171265
0.0039415
24.9565
0.0231355
0.00582346
24.9329
0.0298883
0.00835521
24.9031
0.0388636
0.0116179
24.8672
0.0500629
0.0159652
24.8213
0.0649324
0.0215918
24.7566
0.0681309
0.0287861
24.682
0.0418995
0.0376069
24.6393
-0.0252535
0.0480397
24.6265
-0.0312357
0.0591562
24.6658
-0.209036
0.0714918
24.7509
-0.378189
0.0828221
24.8322
-0.304362
0.0923861
24.9014
-0.297332
0.10005
24.9539
-0.288422
0.106
24.9959
-0.281001
0.110593
25.0404
-0.286203
0.113997
25.0738
-0.286719
0.116323
25.0934
-0.279047
0.117847
25.107
-0.267988
0.118808
25.116
-0.259595
0.119534
25.1231
-0.255336
0.119955
25.1284
-0.251962
0.120204
25.1326
-0.249289
0.12031
25.1354
-0.246786
0.12038
25.1378
-0.245242
0.1204
25.14
-0.244073
0.120441
25.1416
-0.242958
0.120518
25.143
-0.24237
0.120635
25.144
-0.241794
0.120794
25.145
-0.241961
0.121011
25.146
-0.242071
0.121259
25.147
-0.242375
0.121505
25.148
-0.243122
0.121765
25.1493
-0.243803
0.12192
25.151
-0.244644
0.122048
25.1534
-0.245852
0.122035
-0.246551
0.121715
24.9952
0.00730103
0.00109459
24.9874
0.0161968
0.00230495
24.9752
0.0254581
0.00373543
24.957
0.0356229
0.00560852
24.9324
0.046279
0.00805602
24.901
0.0588307
0.0112756
24.8608
0.0743096
0.0156664
24.8114
0.0926359
0.0214235
24.7421
0.108031
0.0290335
24.6437
0.101206
0.0388046
24.5668
0.00597394
0.0508016
-0.00549874
0.00540821
-0.00542004
24.6637
-0.0383759
0.064923
-0.0581865
-0.0384085
-0.0583371
24.5568
-0.0111308
0.0781452
-0.0955438
0.0207129
-0.0945205
24.7308
-0.182651
0.090793
-0.124543
-0.212991
-0.122991
24.8257
-0.129734
0.100454
-0.122422
-0.127729
-0.120064
24.8877
-0.118949
0.107895
-0.117027
-0.116445
-0.114948
24.9422
-0.115075
0.113644
-0.115303
-0.11326
-0.113008
25.0079
-0.117571
0.11805
-0.116524
-0.115793
-0.114888
25.0504
-0.113966
0.121245
-0.112547
-0.112346
-0.111065
25.0756
-0.1101
0.123218
-0.109009
-0.108502
-0.107403
25.0928
-0.420515
0.12422
25.1059
-0.405844
0.12486
25.1137
-0.392931
0.125515
25.1196
-0.387272
0.126029
25.1243
-0.383027
0.126341
25.1277
-0.379133
0.126427
25.13
-0.375373
0.126346
25.1318
-0.373259
0.126166
25.1327
-0.37089
0.125943
25.1337
-0.369699
0.125725
25.1342
-0.368387
0.125537
25.1347
-0.367679
0.1254
25.1348
-0.367312
0.125271
25.1349
-0.367486
0.125281
25.1347
-0.367442
0.125247
25.1345
-0.368184
0.125265
25.1347
-0.36921
0.1252
25.1353
-0.370293
0.125117
25.136
-0.371509
0.124923
-0.372687
0.124522
24.9955
0.00971999
0.00101522
24.9887
0.0208627
0.00214107
24.9768
0.0338391
0.00344893
24.9598
0.0473032
0.00523117
24.935
0.063351
0.00752165
24.9005
0.0826192
0.0106227
24.8548
0.104937
0.0148928
24.7964
0.13016
0.0206643
24.7291
0.146459
0.0285692
6.14103
0.0378616
0.0392603
0.0550617
0.0385027
0.0543567
6.16305
6.14012
6.1609
6.12332
0.0179224
0.00574534
-6.11012
6.09783
-0.0336753
0.00758815
-6.10168
6.12307
-0.0420009
0.00948196
-6.11543
6.14248
-0.221046
0.0113497
-6.16155
6.1762
-0.157032
0.0126454
-6.18992
6.20102
-0.143533
0.0134749
-6.21266
6.22722
-0.14381
0.0141777
-6.23931
6.24658
-0.139594
0.0147599
-6.25235
6.25748
-0.134283
0.0151886
-6.26178
6.26568
-0.129494
0.0154993
25.1041
-0.141152
0.129194
-0.142049
-0.141086
-0.1427
-6.26916
-6.27388
-6.26961
-6.27407
25.1087
-0.539818
0.129343
25.1108
-0.525061
0.130086
25.1131
-0.520369
0.130784
25.1137
-0.514836
0.131282
25.1128
-0.509751
0.131498
25.1118
-0.505847
0.131458
25.1098
-0.502505
0.131225
25.1072
-0.499097
0.130866
25.1039
-0.496869
0.130438
25.1003
-0.494802
0.129981
25.0962
-0.49309
0.129527
25.0915
-0.491637
0.12905
25.0865
-0.491208
0.128708
25.0813
-0.490543
0.128297
25.0757
-0.490452
0.127923
25.0699
-0.490911
0.127455
25.0642
-0.491449
0.126895
25.0595
-0.493074
0.126232
-0.493698
0.125394
24.9972
0.0104072
0.00090768
24.9912
0.0249104
0.00191427
24.9814
0.0405516
0.00307467
24.9659
0.0580894
0.00466612
24.9429
0.0794848
0.00670836
24.9095
0.106482
0.00948494
24.8595
0.141473
0.0133062
24.7852
0.185689
0.0186548
6.17111
0.236017
0.0260285
6.16384
6.17072
6.16379
6.15493
0.0501211
0.00391063
6.12911
0.0055267
-6.15725
0.0203343
0.012172
0.0119036
0.0206008
-0.0423976
-6.07608
6.04151
0.00752537
-0.00191106
0.00446171
0.00395627
-0.00162016
0.0221687
-6.04069
6.0588
0.00972394
0.029252
-0.0399504
-0.0402166
-0.0189393
0.0420657
-6.11127
6.13693
0.0119639
-0.0520379
-0.0667013
-0.104637
-0.0524505
0.238247
-6.17001
6.18273
0.0126989
-0.0506081
-0.0544948
-0.0538552
-0.050943
0.184496
-6.19512
6.20915
0.0129318
-0.0506605
-0.0498448
-0.0498596
-0.0505837
0.173995
-6.22313
6.2352
0.0131724
-0.0485174
-0.0483068
-0.0484194
-0.0484025
0.16842
-6.24491
6.2521
0.0134462
-0.0455586
-0.0453421
-0.0453977
-0.0455278
0.161207
-6.25833
6.26271
0.0137679
-0.0428684
-0.0430296
-0.0429731
-0.0429652
0.153704
-6.2666
6.26859
0.0141258
-0.0406662
-0.0411204
-0.0409647
-0.0408482
0.147491
-6.27164
6.27331
-0.157361
0.0145431
25.0535
-0.62297
0.116025
-6.27384
-6.26852
-6.2746
-6.26934
25.0289
-0.616544
0.116096
25.0026
-0.609394
0.115307
24.9765
-0.602637
0.113909
24.952
-0.597466
0.112209
24.9288
-0.592956
0.110354
24.9065
-0.588719
0.108464
24.8857
-0.584971
0.106652
24.8654
-0.581564
0.104981
24.8459
-0.578754
0.103491
24.8271
-0.576449
0.102188
24.8089
-0.57446
0.101025
24.7906
-0.57301
0.100089
24.7729
-0.57208
0.0992148
24.7556
-0.571494
0.0983901
24.7387
-0.571537
0.0975125
24.7229
-0.572197
0.0964888
24.7086
-0.573967
0.0952684
-0.577562
0.0937624
24.9999
0.00905553
0.00077267
24.9965
0.0266104
0.00162348
24.989
0.0454636
0.00261107
24.9772
0.0659261
0.00388206
24.9596
0.0914598
0.00556802
24.9326
0.125654
0.00779798
24.8895
0.173647
0.0107993
24.8172
0.242881
0.0150147
6.1709
0.350003
0.0206984
6.17045
6.17089
6.17028
-0.0661757
6.14523
0.0887323
0.00310605
-0.019977
-1.52761
1.52244
0.0245601
0.000584312
-0.0198653
-1.50412
1.49192
0.0313386
0.000725621
-1.46808
0.0517784
1.47789
-0.0626724
0.00108727
-1.52945
0.0843853
1.53823
-0.0943275
0.00116773
-1.53689
0.0607615
-0.0640699
0.00113523
1.53907
-1.54878
0.0578887
-0.0611734
0.000610393
1.55146
0.0544117
-1.55749
1.55902
-0.0562275
0.000288431
0.0496788
-1.5621
1.56267
-0.0504531
0.000197063
0.0465959
-1.56339
1.56349
-0.0470399
0.00034247
0.0441919
-1.5629
1.56252
-0.0444772
0.000664145
-1.55681
0.166445
6.17205
-0.148094
0.00896974
-1.54316
-1.55699
-1.54242
23.844
-0.698493
0.0512426
-6.10942
-5.80191
-6.11154
-5.79683
23.8573
-0.683559
0.0536769
23.8684
-0.674612
0.0541533
23.8792
-0.667073
0.0536637
23.8896
-0.660769
0.0528516
23.9
-0.655216
0.0519179
23.9105
-0.65023
0.0509744
23.9212
-0.645726
0.050092
23.932
-0.641705
0.049303
23.9428
-0.638119
0.0486075
23.9533
-0.634903
0.0479789
23.9636
-0.632143
0.04735
23.9736
-0.629705
0.0467275
23.9831
-0.627571
0.0459884
23.9924
-0.625938
0.0450706
24.0016
-0.624613
0.0438864
24.0108
-0.623668
0.042323
24.0196
-0.62309
0.040249
-0.622476
0.0375686
25.0031
0.00513705
0.000631732
25.0037
0.0246884
0.00130137
25.0009
0.0461752
0.00207256
24.9953
0.0685298
0.00298129
24.9866
0.0959674
0.00414875
24.9732
0.133387
0.00566573
24.9537
0.1856
0.00754752
24.9228
0.263801
0.00995092
6.21362
0.390216
0.0127647
6.22165
6.21329
6.22125
-0.107062
6.19825
0.120609
0.00182408
-0.0396974
-1.54218
1.53604
0.0455313
0.000306901
-0.0829415
-1.50669
1.48823
0.101142
0.000257678
0.00430102
-0.074621
0.0747908
-0.00450502
3.4215e-05
-0.0213938
0.000449256
0.0209064
2.13931e-06
3.61071e-05
-0.212842
0.0123073
-0.0230765
-0.00114844
0.22476
-1.13199
0.047238
-0.067222
0.00185147
1.15012
0.0393882
-1.18842
1.19733
-0.0495674
0.00126314
0.036977
-1.22816
1.23932
-0.0484064
0.000273362
0.0353729
-1.27115
1.28173
-0.0451945
-0.000759618
0.0363372
-1.31108
1.32156
-0.0451729
-0.00164145
-1.37412
0.170189
5.77724
-0.205445
-0.0101943
-1.48724
-1.38108
-1.48935
24.0461
-0.65517
-0.085705
-5.84058
-6.16637
-5.83166
-6.1651
24.0784
-0.629248
-0.086649
24.1074
-0.616819
-0.0867684
24.1344
-0.607816
-0.0862644
24.1591
-0.60026
-0.0851584
24.1817
-0.594345
-0.0835438
24.203
-0.589882
-0.0816299
24.2232
-0.586437
-0.0794601
24.2425
-0.583823
-0.077166
24.261
-0.581807
-0.0748345
24.2789
-0.580212
-0.0725806
24.2962
-0.579006
-0.0704262
24.313
-0.578016
-0.0685444
24.3295
-0.577148
-0.0669188
24.3455
-0.576283
-0.0656895
24.3614
-0.575557
-0.0649372
24.3771
-0.574615
-0.0647324
24.3924
-0.573155
-0.0651848
-0.570298
-0.0663048
25.0048
8.76459e-05
0.000474602
25.0102
0.0183661
0.000964296
25.0153
0.039636
0.00148034
25.0194
0.062374
0.00205114
25.0215
0.0912635
0.00265527
25.0267
0.124818
0.00335158
25.039
0.169334
0.00398849
25.0653
0.23322
0.00436431
6.27487
0.334165
0.00410738
6.28265
6.27501
6.28479
-0.112565
6.2827
0.104314
0.000416988
-0.0448742
-1.57815
1.57988
0.043129
1.3916e-05
-0.084358
-1.59862
1.61372
-0.000206597
0.0694661
-0.0257313
-1.71357
1.7521
-0.00126657
0.0561053
-0.0209107
-0.0258227
-0.0209112
0.0987397
-1.71321
1.68381
-0.000752392
-0.0685895
0.101176
-1.60956
-0.000848406
1.59883
-0.0896066
0.0762498
-1.58403
-0.000833218
1.58106
-0.0724551
0.0545689
-1.5764
1.57548
-0.0527797
-0.000869378
0.0551391
-1.57379
1.572
-0.0524039
-0.000950848
0.0496013
-1.57164
1.571
-0.0478879
-0.00107062
0.0462224
-1.57006
1.56956
-0.0445065
-0.00121384
-1.56719
0.173106
6.26324
-0.156584
-0.0121294
-1.56669
-1.56694
-1.56681
25.0659
-0.538723
-0.112683
-6.26684
-6.26652
-6.26914
-6.26722
25.0689
-0.518653
-0.113618
25.0685
-0.502574
-0.11383
25.0674
-0.49291
-0.113735
25.0664
-0.485864
-0.113443
25.0656
-0.480654
-0.112913
25.0648
-0.476779
-0.112271
25.0635
-0.473701
-0.111496
25.0623
-0.471944
-0.110674
25.0609
-0.470508
-0.109852
25.0591
-0.469322
-0.109132
25.0574
-0.4689
-0.108413
25.0558
-0.468423
-0.107916
25.0539
-0.46771
-0.107554
25.0526
-0.46749
-0.107476
25.0516
-0.466892
-0.107722
25.0513
-0.465929
-0.108333
25.0517
-0.464252
-0.109372
-0.462008
-0.110738
25.0058
-0.00501827
0.000279057
25.0143
0.00917515
0.000623376
25.0275
0.0255782
0.000910422
25.0391
0.0497483
0.00113973
25.0546
0.0744919
0.00126349
25.0784
0.100013
0.00117853
25.1165
0.130572
0.000714168
25.1801
0.170352
-0.000596961
6.32112
0.232217
-0.00326128
6.31928
6.32537
6.31973
-0.0894385
6.33731
0.0739847
-0.000725048
-0.0334157
6.41421
0.0881855
-0.00167644
-0.0345751
-0.0334969
-0.0340767
-6.36514
-0.0334459
6.5182
0.0757312
-0.00348456
-0.026157
-0.0332467
-0.0260328
-6.47157
-0.00718422
-6.54879
6.51488
-0.00619727
-0.0060722
0.0152166
-0.00742736
0.0455422
0.0455505
-6.53646
6.51433
-0.12413
-0.00866849
0.0393674
0.0362686
0.0337105
0.0551784
-6.44929
6.41118
-0.178222
-0.0106324
0.0557195
0.0575301
0.058536
0.0563298
-6.37085
6.33849
-0.176036
-0.0119258
0.0550235
0.0553037
0.0536732
0.0464233
-6.32026
6.30899
-0.157669
-0.0129079
0.0454808
0.0452834
0.0446602
0.0443535
-6.30028
6.29436
-0.156616
-0.013633
0.044121
0.0439432
0.0437346
0.0413384
-6.28989
6.28449
-0.143731
-0.014115
0.0408366
0.0408491
0.0402131
0.0384031
-6.28022
6.27475
-0.13156
-0.0144342
0.0379292
0.0378723
0.0372497
0.141683
-6.27315
6.27131
-0.125167
-0.0146821
25.0665
-0.406204
-0.124356
-6.26879
-6.26888
-6.26896
-6.26808
25.0603
-0.388303
-0.124188
25.0582
-0.376507
-0.123917
25.0572
-0.368278
-0.123605
25.0569
-0.362441
-0.123186
25.0569
-0.358005
-0.122627
25.057
-0.354907
-0.121968
25.0572
-0.352694
-0.121255
25.057
-0.351213
-0.120526
25.0566
-0.350277
-0.119815
25.056
-0.349508
-0.119186
25.0552
-0.349508
-0.118605
25.054
-0.349131
-0.118093
25.0534
-0.349369
-0.117751
25.0527
-0.349217
-0.117584
25.0521
-0.348721
-0.117602
25.0525
-0.348447
-0.117861
25.0544
-0.347675
-0.118408
-0.346813
-0.119246
25.0064
-0.0102134
0.000206119
25.0165
-0.00120997
0.00037657
25.0256
0.0160457
0.000457893
25.0424
0.0325596
0.000427275
25.0694
0.0475192
0.000136818
25.1032
0.0669238
-0.000532848
25.151
0.0847701
-0.00183031
25.2178
0.108029
-0.00422815
25.3273
0.131396
-0.00840503
25.4328
0.144496
-0.0152728
-0.061656
-0.0571907
-0.0586759
-0.0569474
25.5806
0.13121
-0.0257135
-0.0608409
-0.0641582
-0.0613072
-0.066722
25.7142
0.0525232
-0.0403596
-0.0417746
-0.0278056
-0.0447853
-0.0311329
25.5909
-0.159348
-0.0576308
0.0219505
0.124981
0.0208367
0.172547
25.4971
-0.241712
-0.0759679
0.0844595
0.118161
0.10015
0.108947
25.4272
-0.253051
-0.0914108
0.084244
0.149673
0.0327865
0.147935
25.3404
-0.357421
-0.10306
0.136522
0.139483
0.134746
0.136701
25.2556
-0.32727
-0.110885
0.130207
0.133854
0.127882
0.131205
25.1889
-0.337072
-0.116071
0.133117
0.130062
0.130036
0.126551
25.1458
-0.315341
-0.119345
0.122854
0.119638
0.11968
0.115645
25.1224
-0.295311
-0.121299
0.11197
0.111657
0.107444
0.108861
25.1038
-0.279546
-0.122301
0.106973
0.106162
0.104384
0.102897
25.088
-0.26804
-0.122436
25.0792
-0.257266
-0.122249
25.0741
-0.24941
-0.12199
25.0708
-0.243221
-0.121726
25.0684
-0.238689
-0.121329
25.067
-0.235729
-0.120903
25.0654
-0.232846
-0.120478
25.0642
-0.231377
-0.120086
25.0627
-0.22995
-0.11976
25.0614
-0.229444
-0.119515
25.0602
-0.229016
-0.119374
25.0586
-0.228534
-0.119352
25.0575
-0.228663
-0.119368
25.0561
-0.228337
-0.11957
25.0549
-0.228231
-0.119868
25.0547
-0.228231
-0.120298
25.0552
-0.22804
-0.120878
25.056
-0.226825
-0.121625
-0.225772
-0.122517
25.0067
-0.0152169
0.000122073
25.0101
-0.00470547
0.00020134
25.0181
0.00797124
0.000143431
25.038
0.0128167
-5.0257e-05
25.0638
0.0224097
-0.000587111
25.0936
0.0390154
-0.00163968
25.1419
0.0401667
-0.0034302
25.2035
0.0531554
-0.00636339
25.2829
0.0634439
-0.0110936
25.3788
0.0672247
-0.0181993
25.4855
0.0532853
-0.0282365
25.5647
0.0152697
-0.0415914
25.5412
-0.0782636
-0.0571568
25.5256
-0.152596
-0.0730351
25.4016
-0.041677
-0.0870051
25.3182
-0.175433
-0.0982222
25.2676
-0.170258
-0.106114
25.206
-0.163586
-0.111686
25.1613
-0.15529
-0.115272
25.1299
-0.146402
-0.117499
25.1074
-0.138247
-0.118754
25.0904
-0.131866
-0.119186
25.0788
-0.126459
-0.119205
25.0707
-0.122451
-0.118934
25.0654
-0.119279
-0.118552
25.0617
-0.117075
-0.11799
25.0586
-0.115204
-0.117435
25.0567
-0.114035
-0.116918
25.0552
-0.11347
-0.116401
25.054
-0.112687
-0.115985
25.0528
-0.112631
-0.115662
25.0515
-0.112247
-0.115451
25.0507
-0.112462
-0.115313
25.0496
-0.112294
-0.115293
25.0492
-0.112537
-0.115393
25.0489
-0.112301
-0.115577
25.049
-0.112508
-0.115851
25.0496
-0.112391
-0.116232
25.0515
-0.111987
-0.116747
-0.112445
-0.117428
24.9871
9.88569e-05
24.9822
0.000167137
24.9903
3.75919e-05
25.0034
-0.000167913
25.0268
-0.000841129
25.0681
-0.00199386
25.1125
-0.00392989
25.1732
-0.00706115
25.2491
-0.0119514
25.3359
-0.0189825
25.4183
-0.0285612
25.4751
-0.0408628
25.4524
-0.054923
25.3697
-0.0692912
25.4109
-0.082316
25.3293
-0.0933637
25.2607
-0.101367
25.2043
-0.106887
25.1597
-0.110542
25.1262
-0.112831
25.1021
-0.114141
25.0849
-0.114676
25.0731
-0.114694
25.065
-0.114346
25.0597
-0.113907
25.0559
-0.113348
25.0535
-0.112799
25.0519
-0.112363
25.0503
-0.111901
25.0492
-0.111589
25.048
-0.111421
25.0471
-0.111331
25.0459
-0.111333
25.0451
-0.111466
25.0443
-0.111757
25.0441
-0.112112
25.0442
-0.112531
25.0448
-0.113031
25.0464
-0.113638
-0.114388
24.9953
0.0018122
0.00231137
24.9881
0.0046545
0.00482785
24.9768
0.00727128
0.00782188
24.9603
0.0104146
0.0115782
24.9385
0.0132267
0.0164345
24.9089
0.0178897
0.0228279
24.8668
0.0260627
0.0311806
24.8094
0.0358885
0.0419363
24.754
0.0272584
0.0554375
24.7181
-0.000718047
0.0720336
24.6938
-0.0218112
0.0910499
24.6322
0.00485349
0.111912
24.6615
-0.0965347
0.133272
24.7798
-0.195867
0.153759
24.813
-0.119471
0.171604
24.8375
-0.117713
0.186098
24.8609
-0.121805
0.197437
24.8803
-0.121535
0.206218
24.8971
-0.121867
0.212806
24.9244
-0.134374
0.217594
24.9516
-0.135824
0.220841
24.9726
-0.130733
0.223065
24.9892
-0.126942
0.224559
25.0028
-0.124619
0.225528
25.014
-0.122563
0.226131
25.0237
-0.121218
0.226486
25.0317
-0.119806
0.226688
25.0385
-0.118609
0.226806
25.0443
-0.117864
0.226936
25.0496
-0.117307
0.227136
25.054
-0.116667
0.227412
25.0577
-0.116182
0.227782
25.0614
-0.116348
0.228217
25.0651
-0.116628
0.228776
25.0685
-0.116513
0.229328
25.0721
-0.117048
0.229928
25.0758
-0.117402
0.230354
25.0798
-0.117895
0.230722
25.0846
-0.118689
0.230779
-0.11936
0.229954
24.9954
0.00366514
0.00225678
24.9882
0.00931534
0.0047212
24.9764
0.0151275
0.00766442
24.9599
0.0209033
0.0113773
24.9377
0.0270393
0.0161984
24.9099
0.0340717
0.0225889
24.8766
0.043358
0.0310059
24.834
0.0570059
0.042007
24.7714
0.0613517
0.0561239
24.696
0.0371165
0.0737894
24.6534
-0.027381
0.0947246
24.5929
0.00506585
0.118106
24.6291
-0.204651
0.142044
24.7623
-0.41226
0.164731
24.8438
-0.293688
0.18378
24.9122
-0.286008
0.198894
24.9627
-0.277733
0.210643
25.0032
-0.271371
0.219531
25.0484
-0.27953
0.226117
25.0806
-0.281048
0.230724
25.0993
-0.27056
0.233832
25.1123
-0.260995
0.235967
25.121
-0.253515
0.237482
25.1273
-0.24954
0.238478
25.1325
-0.246591
0.239106
25.1359
-0.243802
0.239491
25.1381
-0.241428
0.239756
25.1402
-0.240268
0.239977
25.1416
-0.239008
0.240214
25.1424
-0.238075
0.240496
25.1432
-0.237684
0.240839
25.1441
-0.237554
0.241245
25.1444
-0.237416
0.241751
25.1448
-0.237976
0.242282
25.1457
-0.238739
0.242827
25.1463
-0.239194
0.243336
25.1474
-0.240344
0.243741
25.1492
-0.241674
0.243983
25.1512
-0.242628
0.243979
-0.244073
0.243078
24.9955
0.00552693
0.00215205
24.9885
0.0138761
0.00451189
24.9769
0.022919
0.00734465
24.96
0.0321452
0.0109407
24.9368
0.0421744
0.0156549
24.9066
0.052987
0.0219809
24.8684
0.0659946
0.0304782
24.8218
0.082347
0.0418662
24.7559
0.098268
0.0569834
24.6607
0.0935531
0.0765843
24.5836
0.00472179
0.100893
-0.00554086
0.00432273
-0.00484129
24.7183
-0.038944
0.128783
-0.0591696
-0.0383895
-0.0577588
24.5779
0.0207199
0.157218
-0.0952284
0.0226982
-0.0920229
24.7415
-0.214931
0.183652
-0.123836
-0.211441
-0.119204
24.8329
-0.128596
0.203694
-0.120885
-0.124027
-0.115506
24.8928
-0.117638
0.218872
-0.11625
-0.112808
-0.110845
24.9467
-0.114897
0.23064
-0.114644
-0.109837
-0.109452
25.0122
-0.117462
0.239456
-0.116646
-0.112504
-0.111621
25.0546
-0.114321
0.245767
-0.113207
-0.109645
-0.109105
25.0803
-0.111101
0.249907
-0.10961
-0.107207
-0.105361
25.0983
-0.416574
0.252368
25.1102
-0.402209
0.25416
25.1178
-0.391013
0.255513
25.1231
-0.385918
0.257093
25.127
-0.382168
0.258025
25.1296
-0.378805
0.258831
25.1315
-0.375909
0.258877
25.1324
-0.373972
0.259016
25.1328
-0.372544
0.259057
25.1337
-0.372278
0.259054
25.1336
-0.371077
0.259038
25.1336
-0.37118
0.25904
25.1341
-0.371443
0.258832
25.1338
-0.371562
0.259157
25.1333
-0.37226
0.259235
25.1332
-0.373101
0.25929
25.1331
-0.374315
0.259252
25.1332
-0.375712
0.259047
25.1342
-0.377287
0.258631
-0.378736
0.257412
24.9965
0.00700986
0.00199261
24.9899
0.0182845
0.00418422
24.9785
0.0306764
0.00682399
24.9619
0.0435201
0.0101941
24.9386
0.0579482
0.0146578
24.9054
0.0756663
0.0207252
24.8605
0.0961349
0.0290853
24.8023
0.119962
0.0406163
24.7335
0.138419
0.0565748
6.14226
0.0375276
0.078527
0.0523546
0.0371694
0.0517019
6.16198
6.1426
6.16156
-0.0114063
6.12497
0.0160589
0.017307
-0.0151965
-6.11309
6.10118
-0.0348909
0.0230396
-0.0191188
-6.1053
6.09781
0.0183158
0.0290405
-0.0229246
-6.11343
6.14547
-0.258904
0.0348842
-0.0256297
-6.16394
6.17807
-0.156179
0.0390816
-0.0274701
-6.19151
6.20256
-0.143203
0.0419657
-0.0289359
-6.21365
6.2282
-0.144815
0.0443141
-0.0301037
-6.24104
6.2484
-0.140868
0.0461914
-0.0309613
-6.25421
6.25945
-0.136088
0.0475348
-0.0315159
-6.26311
6.267
-0.131896
0.0484596
25.1051
-0.145236
0.276138
-0.145546
-0.145596
-0.143478
-6.27054
-6.27437
-6.26997
-6.27369
25.1106
-0.555855
0.277652
25.1124
-0.54073
0.27801
25.1138
-0.536255
0.279802
25.1135
-0.531898
0.281291
25.1115
-0.528106
0.282786
25.1095
-0.525765
0.283382
25.1067
-0.523817
0.283842
25.1033
-0.522242
0.283947
25.0991
-0.521401
0.283749
25.0949
-0.520204
0.283311
25.0902
-0.519583
0.282707
25.0847
-0.518693
0.281725
25.079
-0.51835
0.281201
25.0729
-0.518081
0.280282
25.0666
-0.518277
0.279385
25.0597
-0.518212
0.278248
25.053
-0.518984
0.276882
25.0475
-0.520705
0.275168
-0.521647
0.272534
24.9982
0.00683891
0.00177634
24.9928
0.0217225
0.00373261
24.983
0.0373102
0.00608286
24.9681
0.0538292
0.009082
24.9457
0.0736867
0.0130708
24.9133
0.098898
0.0182796
24.8645
0.131758
0.026168
24.7917
0.174091
0.0369131
6.17298
0.224304
0.0523457
6.16613
6.17354
6.16647
-0.00775632
6.1578
0.0486232
0.0118096
-0.0110344
6.13165
0.016845
-6.16025
0.0193831
0.0111938
0.0196825
0.0108896
-0.038358
-0.0151523
-6.07915
6.04604
0.0233213
-0.00277244
0.00283394
-0.00275385
0.00272434
0.0250139
-0.0198031
-6.04448
6.05812
0.0306465
0.0516999
-0.0409718
0.0512786
-0.0407721
-0.0454553
-0.0241891
-6.09857
6.13979
0.0374289
-0.0516963
-0.129709
-0.0522559
-0.129319
0.308775
-0.0258841
-6.17075
6.18229
0.0402723
-0.0506752
-0.0541831
-0.0511076
-0.0537507
0.183886
-0.0267067
-6.19574
6.20999
0.0419571
-0.0515132
-0.0508517
-0.0517001
-0.0506448
0.17523
-0.027535
-6.22396
6.2362
0.0436662
-0.049863
-0.0498086
-0.0499626
-0.0497225
0.171063
-0.0283069
-6.24612
6.2535
0.0451388
-0.0469097
-0.0471425
-0.047345
-0.0469902
0.16428
-0.0289651
-6.26001
6.26423
0.0462668
-0.0444456
-0.0449317
-0.044799
-0.0446235
0.157369
-0.0294686
-6.26811
6.26991
0.0470822
-0.0423932
-0.0429449
-0.0425604
-0.042548
0.151084
-6.27192
-0.0295609
6.27337
-0.164843
0.0477408
25.0421
-0.679705
0.276746
-6.27356
-6.26629
-6.27342
-6.26564
25.0133
-0.670028
0.274293
24.9835
-0.663353
0.272156
24.954
-0.658361
0.269943
24.9262
-0.655859
0.267761
24.8997
-0.654449
0.265537
24.8751
-0.653204
0.262455
24.8521
-0.651916
0.25929
24.8302
-0.650291
0.25586
24.8095
-0.648357
0.252258
24.79
-0.64619
0.248367
24.7711
-0.643808
0.245029
24.7526
-0.641234
0.241492
24.7346
-0.639034
0.238089
24.7169
-0.636937
0.234777
24.7001
-0.635301
0.231396
24.6842
-0.63436
0.227756
24.6698
-0.634704
0.223672
-0.637173
0.218671
25.0019
0.00344747
0.00150019
24.9995
0.0225262
0.00315661
24.9916
0.0425466
0.00511959
24.9794
0.0621888
0.00759195
24.9618
0.0858671
0.0108442
24.9358
0.117789
0.0147558
24.8935
0.163233
0.0213806
24.8225
0.230006
0.0299532
6.17276
0.335299
0.0424838
6.17176
6.17316
6.17187
-0.00612063
-0.0635243
6.14742
0.0854569
0.00953623
-0.0019955
-0.0189662
-1.52815
1.52294
0.0235279
0.00264922
-0.0029041
-0.0179052
-1.50467
1.49211
0.0296765
0.00372689
-0.00417053
-1.46918
0.052767
1.47905
-0.0637375
0.00534447
-0.00549663
-1.52844
0.154023
1.53998
-0.166983
0.00699588
-0.00545988
-1.53703
0.0604089
-0.0637086
1.53919
0.0066409
-1.549
-0.0051241
0.0593774
-0.0632156
0.00608974
1.55188
-0.00483017
0.0569697
-1.55773
1.55921
-0.0596516
0.00604283
-0.00464925
0.0530289
-1.56208
1.56256
-0.0551356
0.00628027
-0.00455727
0.0502399
-1.56292
1.56287
-0.0521865
0.00655588
-0.00449036
0.0476444
-1.56188
1.56135
-0.04933
0.00670217
-1.55476
-0.0164476
0.178073
6.15905
-0.167968
0.0330256
-1.53776
-1.55483
-1.53838
23.8003
-0.788468
0.12935
-6.09742
-5.79116
-6.09221
-5.7888
23.8174
-0.764585
0.131112
23.8327
-0.755008
0.130528
23.8475
-0.747915
0.128436
23.8616
-0.742866
0.125778
23.8749
-0.738807
0.123015
23.8881
-0.735085
0.11959
23.9012
-0.731316
0.116367
23.9144
-0.72736
0.113243
23.9275
-0.723124
0.110286
23.9406
-0.71865
0.107285
23.9534
-0.714148
0.104924
23.9661
-0.709671
0.10241
23.9786
-0.705383
0.0999097
23.9908
-0.701397
0.0972511
24.003
-0.697791
0.0942414
24.015
-0.694611
0.0905815
24.0266
-0.691867
0.0857791
-0.689428
0.078854
25.0089
0.00218983
0.00122326
25.0096
0.0206045
0.002511
25.0061
0.0440201
0.00400363
24.9993
0.0661482
0.00581998
24.9892
0.0918912
0.00811141
24.9756
0.126461
0.0105825
24.9561
0.175314
0.0149656
24.9256
0.25039
0.0199963
6.21391
0.375358
0.0267909
6.22179
6.21396
6.22188
-0.00363781
-0.103321
6.19842
0.116732
0.00571478
-0.00109427
-0.0386286
-1.54213
1.53597
0.0444289
0.00145966
-0.00132127
-0.0815355
-1.506
1.48748
0.0995929
0.00179443
-0.000146733
0.00449993
-0.0747397
0.0749881
-0.0047762
0.000174975
0.00282016
-0.198464
0.0109126
-0.0216412
-0.00417292
0.210544
-1.12426
0.00323094
0.0479705
-0.0715606
-0.0045061
1.14912
0.00322674
0.0423482
-1.2082
1.22242
-0.0543861
-0.00540925
0.0033254
0.0459162
-1.26447
1.27806
-0.0571962
-0.00563704
0.00309382
0.0467587
-1.31237
1.32246
-0.0544806
-0.00546192
0.00282785
0.0475459
-1.34712
1.35541
-0.0534203
-0.0052424
-1.39683
0.014794
0.197476
5.82324
-0.219425
-0.0308841
-1.49624
-1.39623
-1.49589
24.1642
-0.698014
-0.211737
-5.88196
-6.17352
-5.89594
-6.17722
24.1956
-0.67016
-0.212529
24.2252
-0.659531
-0.211761
24.2533
-0.651682
-0.210624
24.279
-0.645282
-0.208476
24.3022
-0.640391
-0.205109
24.3228
-0.636746
-0.200651
24.3412
-0.633815
-0.195339
24.3575
-0.631366
-0.189462
24.3721
-0.629178
-0.183312
24.3854
-0.627329
-0.177196
24.398
-0.625868
-0.171337
24.4104
-0.624653
-0.16602
24.4228
-0.623324
-0.161358
24.4353
-0.621999
-0.157523
24.4478
-0.620611
-0.154675
24.4606
-0.619061
-0.153082
24.4734
-0.616817
-0.153067
-0.612771
-0.155148
25.0083
-0.00292789
0.00090333
25.0153
0.0126654
0.0018308
25.022
0.0359995
0.00282896
25.0259
0.0604369
0.00393573
25.0252
0.0901794
0.00517346
25.0295
0.119336
0.00627635
25.0413
0.159734
0.00788447
25.0694
0.217958
0.00891181
6.27596
0.307175
0.00904336
6.28823
6.27722
6.29137
-0.000908145
-0.108304
6.28337
0.100379
0.00142891
-9.56942e-05
-0.043803
-1.57782
1.57951
0.0420865
0.000122601
0.000444484
-0.081072
-1.60003
1.61661
0.0644897
-0.000468725
0.00161404
-0.0267335
-1.71243
1.75044
0.0594454
5.59017e-05
-0.0222938
-0.0276611
-0.0224938
0.00259231
0.110785
-1.71145
1.68024
-0.0792849
-0.00295107
0.106538
-1.60901
0.00386839
1.59768
-0.0942673
-0.00485295
0.00456586
0.0751227
-1.5823
-0.005799
1.58011
-0.0717107
0.00489601
0.0550804
-1.57689
1.57544
-0.0521213
-0.00640333
0.00513714
0.0571494
-1.5747
1.5733
-0.0540481
-0.00683157
0.00539368
0.0514538
-1.57253
1.5719
-0.0490621
-0.00715534
0.00561172
0.047697
-1.56918
1.56952
-0.0462856
-0.00736127
-1.56978
0.024526
0.182375
6.27416
-0.159913
-0.0406616
-1.56986
-1.57012
-1.57073
25.0882
-0.537395
-0.257127
-6.27697
-6.26934
-6.28306
-6.27511
25.089
-0.526998
-0.257602
25.0866
-0.513701
-0.257253
25.0837
-0.505073
-0.257453
25.0806
-0.497982
-0.257604
25.0778
-0.493167
-0.257396
25.075
-0.489379
-0.256803
25.0721
-0.486609
-0.255857
25.0693
-0.484621
-0.254622
25.0665
-0.482992
-0.253188
25.0637
-0.482031
-0.251687
25.0616
-0.481691
-0.250467
25.0595
-0.481502
-0.248954
25.0574
-0.480826
-0.24796
25.0562
-0.480884
-0.247357
25.0555
-0.480286
-0.247335
25.0554
-0.479261
-0.248057
25.056
-0.477154
-0.249675
-0.474367
-0.25207
25.007
-0.00757331
0.000600831
25.0171
0.00196676
0.00117532
25.0314
0.0210422
0.00170952
25.0399
0.0510844
0.0021471
25.0576
0.071588
0.00239118
25.081
0.0950881
0.002251
25.1188
0.121628
0.00135967
25.1841
0.15348
-0.000983425
6.32989
0.193721
-0.00603712
6.31909
6.33407
6.31772
-0.0851595
0.00134573
6.34821
0.0675992
-0.00208068
-0.032648
0.00337408
6.42203
0.0858498
-0.00488892
-0.0305749
-0.0327372
-0.0295228
-6.38086
-0.028917
0.00702615
6.49284
0.0793591
-0.0102123
-0.0283956
-0.0277904
-0.0305092
-6.45347
-0.00894929
0.0119437
-6.54096
6.49991
-0.0601008
-0.0181642
0.063296
-0.0100149
0.0628379
0.0357039
0.018012
-6.49235
6.47354
-0.146579
-0.0273714
0.0521804
0.0351473
0.0515404
0.0589017
-6.44956
0.0230196
6.40578
-0.18541
-0.0348785
0.0581961
0.0623235
0.0615789
0.0565891
0.0260329
-6.36565
6.33791
-0.179524
-0.0395699
0.0546649
0.0557156
0.053857
0.0463776
0.0280277
-6.32406
6.31688
-0.161359
-0.0426745
0.0457954
0.0457139
0.0452781
0.0451787
0.0293672
-6.3124
6.30423
-0.15717
-0.0447269
0.0457084
0.0446036
0.0451421
0.0443754
0.0301369
-6.29532
6.28624
-0.146661
-0.0459697
0.0418741
0.0438798
0.0413859
0.03931
0.0305773
-6.2788
6.27109
-0.129326
-0.0466718
0.0363138
0.0398792
0.0375886
0.140138
-6.26981
0.0308993
6.27037
-0.124535
-0.0470817
25.0688
-0.392798
-0.264849
-6.2691
-6.26721
-6.2697
-6.26698
25.064
-0.382786
-0.263683
25.0621
-0.373249
-0.26242
25.0608
-0.365791
-0.261618
25.0606
-0.360324
-0.260692
25.0603
-0.355963
-0.259529
25.0603
-0.353176
-0.258182
25.0605
-0.351279
-0.256719
25.0601
-0.349609
-0.255216
25.0601
-0.349004
-0.253748
25.0596
-0.348322