/*--------------------------------*- C++ -*----------------------------------*\
| =========                 |                                                 |
| \\      /  F ield         | OpenFOAM: The Open Source CFD Toolbox           |
|  \\    /   O peration     | Version:  2306                                  |
|   \\  /    A nd           | Website:  www.openfoam.com                      |
|    \\/     M anipulation  |                                                 |
\*---------------------------------------------------------------------------*/
FoamFile
{
    version     2.0;
    format      ascii;
    arch        "LSB;label=32;scalar=64";
    class       volVectorField;
    location    "0.65";
    object      U;
}
// * * * * * * * * * * * * * * * * * * * * * * * * * * * * * * * * * * * * * //

dimensions      [0 1 -1 0 0 0 0];

internalField   nonuniform List<vector> 
111542
(
(99.9932 0.0059185 0.00234468)
(99.9706 0.0120193 0.0050131)
(99.9286 0.0182473 0.00807406)
(99.8661 0.0247344 0.0119546)
(99.7816 0.0312144 0.0170199)
(99.6732 0.0369048 0.0237147)
(99.5403 0.0399354 0.0323192)
(99.3849 0.0373184 0.0433618)
(99.2167 0.0243773 0.0573965)
(99.0555 -0.00537873 0.0745068)
(98.9348 -0.0578104 0.0942592)
(98.8954 -0.130717 0.115749)
(98.9643 -0.205952 0.138021)
(99.1329 -0.263582 0.159068)
(99.3561 -0.29238 0.177426)
(99.5839 -0.301634 0.192826)
(99.7874 -0.300408 0.205205)
(99.9576 -0.293724 0.214923)
(100.095 -0.284752 0.222228)
(100.203 -0.275527 0.227536)
(100.287 -0.26726 0.230985)
(100.349 -0.260178 0.233082)
(100.396 -0.254104 0.234438)
(100.431 -0.249479 0.235122)
(100.458 -0.246158 0.235388)
(100.479 -0.243717 0.235604)
(100.496 -0.242288 0.235675)
(100.51 -0.241738 0.235721)
(100.52 -0.241742 0.235959)
(100.529 -0.24214 0.236413)
(100.537 -0.242858 0.237037)
(100.543 -0.243891 0.237733)
(100.549 -0.245042 0.238598)
(100.554 -0.246256 0.239584)
(100.559 -0.247532 0.240589)
(100.564 -0.248891 0.241497)
(100.57 -0.250392 0.242149)
(100.577 -0.251901 0.242603)
(100.587 -0.253442 0.242823)
(100.602 -0.255236 0.242832)
(99.9935 0.0176171 0.00230533)
(99.9714 0.0357077 0.00486984)
(99.93 0.054566 0.00792791)
(99.8679 0.0745095 0.011799)
(99.7828 0.0949182 0.0168413)
(99.6714 0.113696 0.0234927)
(99.5304 0.125905 0.0322249)
(99.3595 0.122693 0.0436027)
(99.1646 0.0893439 0.0581717)
(98.9645 0.00461068 0.0761797)
(98.8005 -0.149245 0.0974209)
(98.7394 -0.366409 0.120006)
(98.8266 -0.594582 0.143895)
(99.0413 -0.760788 0.166456)
(99.3106 -0.844563 0.18571)
(99.5679 -0.874712 0.201342)
(99.7867 -0.873861 0.21377)
(99.964 -0.856382 0.223414)
(100.103 -0.832171 0.230581)
(100.21 -0.80655 0.235603)
(100.291 -0.782369 0.238836)
(100.35 -0.762077 0.24091)
(100.393 -0.746025 0.24226)
(100.425 -0.733858 0.243072)
(100.449 -0.723637 0.243537)
(100.468 -0.714306 0.243864)
(100.483 -0.706415 0.244154)
(100.495 -0.700231 0.244494)
(100.505 -0.695518 0.244958)
(100.514 -0.692126 0.245559)
(100.521 -0.689992 0.246282)
(100.527 -0.689088 0.247095)
(100.533 -0.689143 0.247986)
(100.538 -0.690038 0.248907)
(100.542 -0.69173 0.249777)
(100.547 -0.6942 0.250511)
(100.553 -0.697459 0.251017)
(100.56 -0.701273 0.251252)
(100.568 -0.705559 0.251197)
(100.581 -0.710323 0.25096)
(99.9939 0.0288324 0.0022041)
(99.9728 0.0585183 0.00465842)
(99.9332 0.0902054 0.00761655)
(99.8727 0.12466 0.0113757)
(99.7877 0.161567 0.0163046)
(99.6719 0.198575 0.0228833)
(99.5178 0.22936 0.0316979)
(99.3179 0.240256 0.0434503)
(99.0693 0.204527 0.0589108)
(98.7888 0.0734504 0.0787303)
(98.5358 -0.263103 0.103225)
(98.4228 -0.730131 0.131381)
(98.5473 -1.15551 0.15721)
(98.8574 -1.40189 0.180903)
(99.2105 -1.50308 0.20012)
(99.519 -1.53144 0.215088)
(99.7671 -1.51382 0.226791)
(99.9584 -1.47457 0.235735)
(100.102 -1.4289 0.242189)
(100.207 -1.38308 0.246392)
(100.284 -1.34112 0.248435)
(100.336 -1.30237 0.249621)
(100.373 -1.27794 0.250593)
(100.4 -1.26591 0.251337)
(100.423 -1.25829 0.251778)
(100.441 -1.25152 0.251956)
(100.454 -1.24548 0.251962)
(100.464 -1.24043 0.251882)
(100.471 -1.2363 0.251801)
(100.477 -1.23307 0.251787)
(100.481 -1.23076 0.251877)
(100.485 -1.22942 0.252081)
(100.487 -1.22901 0.252378)
(100.489 -1.22951 0.252722)
(100.491 -1.23092 0.253035)
(100.492 -1.23326 0.253223)
(100.493 -1.23651 0.253182)
(100.496 -1.2406 0.252835)
(100.499 -1.2453 0.252183)
(100.507 -1.25014 0.251465)
(99.9945 0.0390338 0.0020457)
(99.9757 0.0795765 0.00432962)
(99.9397 0.123828 0.0070905)
(99.8837 0.173707 0.010615)
(99.8021 0.230333 0.0152737)
(99.6855 0.293156 0.0215693)
(99.5196 0.357946 0.0301696)
(99.2836 0.412169 0.041932)
(98.9483 0.426157 0.0579392)
(98.449 0.225258 0.07954)
(98.1907 0.0450999 0.0862418)
(97.841 -0.614788 0.101851)
(97.904 -1.4246 0.115477)
(98.3851 -1.94897 0.126281)
(98.8964 -2.10597 0.136263)
(99.3021 -2.13756 0.142816)
(99.6265 -2.09642 0.147522)
(99.866 -2.02093 0.150988)
(100.036 -1.94069 0.153473)
(100.159 -1.86922 0.15516)
(100.315 -1.92333 0.249417)
(100.349 -1.84889 0.249774)
(100.357 -1.79412 0.250508)
(100.362 -1.75935 0.251655)
(100.37 -1.73498 0.252797)
(100.376 -1.71745 0.253617)
(100.376 -1.70531 0.253999)
(100.373 -1.69718 0.254001)
(100.366 -1.69192 0.253756)
(100.358 -1.68888 0.25339)
(100.347 -1.68764 0.252988)
(100.333 -1.68789 0.252586)
(100.318 -1.68943 0.252169)
(100.301 -1.69212 0.251678)
(100.282 -1.69588 0.251027)
(100.262 -1.70073 0.25011)
(100.241 -1.70673 0.248805)
(100.219 -1.71388 0.247021)
(100.199 -1.72197 0.244764)
(100.176 -1.72965 0.242425)
(99.9956 0.0474491 0.00182828)
(99.9804 0.0972137 0.00387098)
(99.9509 0.152781 0.00633164)
(99.9039 0.217795 0.00946492)
(99.833 0.29596 0.0136122)
(99.7266 0.390944 0.0192412)
(99.5653 0.505554 0.0270013)
(99.3164 0.638543 0.0377511)
(98.8745 0.776758 0.0526183)
(98.53 0.78421 0.0579917)
(97.7152 0.394881 0.0715634)
(96.9049 -0.672474 0.0887594)
(96.9919 -2.33394 0.101832)
(98.1201 -2.94938 0.108993)
(98.8589 -2.98104 0.116433)
(99.346 -2.92967 0.118064)
(99.7182 -2.79691 0.117989)
(99.9589 -2.64899 0.118439)
(100.11 -2.51715 0.120114)
(100.202 -2.41359 0.123021)
(100.263 -2.35886 0.127643)
(100.194 -2.48455 0.217163)
(100.072 -2.47425 0.215624)
(99.9577 -2.44604 0.212882)
(99.8574 -2.41067 0.209421)
(99.7635 -2.3772 0.205471)
(99.6734 -2.34742 0.20129)
(99.5875 -2.32084 0.197273)
(99.5058 -2.29722 0.193794)
(99.4275 -2.27655 0.191061)
(99.3521 -2.25878 0.189089)
(99.2788 -2.24377 0.187741)
(99.2074 -2.23131 0.186783)
(99.1372 -2.22126 0.185938)
(99.0682 -2.21351 0.184938)
(99.0002 -2.20802 0.183544)
(98.9338 -2.2049 0.18154)
(98.8699 -2.20443 0.178759)
(98.8108 -2.2074 0.175133)
(98.7507 -2.21567 0.170908)
(99.9971 0.0531312 0.00155421)
(99.9871 0.109367 0.0032848)
(99.9674 0.173431 0.00534233)
(99.9352 0.250806 0.00792091)
(99.8849 0.348272 0.0112826)
(99.8062 0.475119 0.0157798)
(99.6798 0.645031 0.0218903)
(99.4691 0.878447 0.0302127)
(99.0501 1.20719 0.0414487)
(98.6408 1.37003 0.0458576)
(97.6854 1.51395 0.0440932)
(95.569 0.749737 0.0406163)
(94.3492 -3.40089 0.0541144)
(98.1611 -4.70782 0.0405112)
(98.7223 -3.87522 0.0351749)
(99.3346 -3.7363 0.00439831)
(99.7477 -3.45091 -0.00569249)
(99.9188 -3.18323 0.00676369)
(99.9542 -2.99058 0.028769)
(99.896 -2.83792 0.0444084)
(98.8481 -2.60016 0.0776336)
(95.229 -2.22796 0.101325)
(95.2882 -2.30853 0.111394)
(95.3607 -2.34835 0.113931)
(95.4178 -2.36657 0.112245)
(95.4647 -2.37617 0.108376)
(95.5094 -2.38097 0.103464)
(95.555 -2.38229 0.0982408)
(95.6014 -2.38143 0.0931626)
(95.6481 -2.37951 0.0884505)
(95.6945 -2.37729 0.0841458)
(95.74 -2.37523 0.080176)
(95.7842 -2.37364 0.0764002)
(95.8269 -2.37277 0.0726548)
(95.868 -2.37288 0.0687719)
(95.9077 -2.37419 0.0645882)
(95.9464 -2.37697 0.0599277)
(95.9846 -2.38162 0.0545973)
(96.0222 -2.38904 0.0484091)
(96.0652 -2.40178 0.0413977)
(99.999 0.0551282 0.00126908)
(99.9955 0.113897 0.00262773)
(99.9883 0.18182 0.00419047)
(99.9761 0.26564 0.00607825)
(99.9561 0.374326 0.00842892)
(99.9236 0.521445 0.0114064)
(99.8704 0.729085 0.0151744)
(99.7819 1.03596 0.0198055)
(99.6106 1.51585 0.0250894)
(99.3434 1.91742 0.027206)
(98.626 2.85804 0.0242413)
(95.4922 5.87967 0.0171483)
(77.0328 -4.16579 0.0380584)
(102.683 -10.2829 0.0218233)
(54.3889 -4.07649 -0.417391)
(72.3509 -3.56248 -0.043765)
(75.9092 -2.74624 0.0252191)
(78.8419 -2.42993 0.0639375)
(81.5768 -2.35924 0.0696931)
(84.1347 -2.46393 0.0510218)
(92.0326 -3.38987 -0.113265)
(96.0407 -3.18661 -0.153565)
(96.1841 -3.06574 -0.155705)
(96.3357 -2.97746 -0.154858)
(96.4588 -2.91048 -0.153001)
(96.5619 -2.85666 -0.151042)
(96.6559 -2.81236 -0.149456)
(96.7446 -2.77545 -0.148434)
(96.8289 -2.74432 -0.147893)
(96.9091 -2.71764 -0.147574)
(96.9859 -2.69446 -0.14718)
(97.0598 -2.67406 -0.146478)
(97.131 -2.65597 -0.145358)
(97.2002 -2.63987 -0.143834)
(97.2675 -2.62552 -0.142032)
(97.3333 -2.61274 -0.140162)
(97.398 -2.60128 -0.138519)
(97.4618 -2.59076 -0.137434)
(97.5244 -2.58038 -0.137242)
(97.5993 -2.56807 -0.138047)
(100.001 0.0530761 0.00100796)
(100.005 0.109634 0.0019773)
(100.011 0.175473 0.00301763)
(100.021 0.25749 0.00415942)
(100.036 0.364844 0.00540409)
(100.057 0.511171 0.00670306)
(100.092 0.717928 0.00788282)
(100.156 1.02097 0.00848198)
(100.302 1.48256 0.0074711)
(100.352 1.89382 0.00694965)
(100.632 2.87987 0.00248873)
(102.468 5.4041 -0.00701501)
(111.185 3.87809 -0.0396721)
(109.106 -6.67386 0.0402308)
(102.79 -6.74023 -0.00742006)
(101.091 -4.89791 -0.0139771)
(100.64 -3.86981 -0.0186763)
(100.476 -3.31399 -0.0257277)
(100.399 -3.00319 -0.0312434)
(100.337 -2.83259 -0.033324)
(100.244 -2.64905 -0.0993745)
(100.27 -2.26927 -0.213962)
(100.259 -2.16291 -0.214637)
(100.254 -2.09874 -0.214068)
(100.252 -2.06054 -0.213412)
(100.25 -2.03532 -0.21279)
(100.247 -2.01822 -0.212118)
(100.245 -2.00745 -0.211466)
(100.242 -2.00157 -0.210954)
(100.238 -1.99929 -0.210657)
(100.233 -1.99957 -0.210585)
(100.228 -2.00161 -0.210721)
(100.221 -2.00474 -0.211034)
(100.215 -2.00841 -0.211506)
(100.208 -2.01213 -0.212149)
(100.202 -2.01542 -0.213019)
(100.198 -2.01777 -0.214226)
(100.195 -2.01852 -0.215913)
(100.196 -2.01659 -0.218207)
(100.203 -2.00977 -0.220991)
(100.003 0.0465608 0.000609333)
(100.013 0.0961856 0.00124613)
(100.032 0.15399 0.00182765)
(100.063 0.225894 0.00228029)
(100.109 0.319396 0.00249945)
(100.177 0.444655 0.00227161)
(100.282 0.615838 0.0011739)
(100.451 0.852391 -0.00157592)
(100.77 1.17861 -0.00741369)
(100.996 1.41795 -0.00975504)
(101.854 1.87245 -0.017874)
(103.476 1.77021 -0.0323485)
(105.264 -0.245925 -0.047963)
(104.805 -2.83841 -0.0249493)
(102.99 -3.56257 -0.0418193)
(101.755 -3.34141 -0.0566213)
(101.115 -2.98375 -0.066037)
(100.774 -2.68262 -0.0725053)
(100.579 -2.4583 -0.0774179)
(100.451 -2.29196 -0.081487)
(100.36 -2.15838 -0.0852138)
(100.268 -1.87835 -0.23978)
(100.242 -1.83606 -0.239399)
(100.228 -1.80393 -0.238783)
(100.223 -1.78078 -0.23831)
(100.221 -1.76307 -0.237938)
(100.222 -1.74885 -0.237565)
(100.223 -1.73754 -0.237185)
(100.223 -1.72875 -0.236832)
(100.223 -1.72199 -0.236529)
(100.222 -1.71678 -0.236281)
(100.22 -1.71271 -0.236085)
(100.217 -1.70938 -0.235938)
(100.214 -1.70644 -0.235842)
(100.21 -1.7035 -0.23582)
(100.207 -1.7002 -0.235916)
(100.205 -1.69614 -0.236205)
(100.205 -1.69091 -0.236785)
(100.209 -1.68417 -0.237771)
(100.222 -1.67601 -0.239295)
(100.004 0.0360805 0.000414102)
(100.02 0.0746639 0.000771522)
(100.05 0.119435 0.000940973)
(100.097 0.174692 0.000807079)
(100.166 0.245456 0.000196349)
(100.266 0.337533 -0.00122705)
(100.414 0.457152 -0.00401075)
(100.635 0.60868 -0.00905319)
(100.971 0.788128 -0.0178077)
(101.46 0.870498 -0.0321223)
(102.102 0.769333 -0.0536868)
(102.781 0.234999 -0.082881)
(103.138 -0.760961 -0.114854)
(102.885 -1.5991 -0.143664)
(102.232 -1.90997 -0.173152)
(101.591 -1.91714 -0.197284)
(101.136 -1.8316 -0.214167)
(100.843 -1.72628 -0.2255)
(100.648 -1.62561 -0.233012)
(100.514 -1.53543 -0.237741)
(100.423 -1.4557 -0.240332)
(100.364 -1.38275 -0.241131)
(100.327 -1.32308 -0.241111)
(100.302 -1.2741 -0.240763)
(100.287 -1.23508 -0.240269)
(100.276 -1.20457 -0.239736)
(100.269 -1.18082 -0.239248)
(100.263 -1.1626 -0.238872)
(100.258 -1.14897 -0.238649)
(100.253 -1.13909 -0.238601)
(100.248 -1.13221 -0.238737)
(100.242 -1.12765 -0.239057)
(100.236 -1.12481 -0.239555)
(100.231 -1.12311 -0.240219)
(100.226 -1.122 -0.241048)
(100.221 -1.12101 -0.242047)
(100.218 -1.1197 -0.243237)
(100.218 -1.11769 -0.244653)
(100.22 -1.11478 -0.246347)
(100.227 -1.1111 -0.248377)
(100.006 0.0228865 0.000247495)
(100.025 0.047227 0.00037024)
(100.062 0.0754387 0.000249174)
(100.119 0.109848 -0.00027159)
(100.203 0.153329 -0.00144742)
(100.321 0.208262 -0.00363564)
(100.487 0.27607 -0.00741916)
(100.717 0.354177 -0.0136235)
(101.029 0.429508 -0.0233896)
(101.431 0.462553 -0.0380067)
(101.897 0.396785 -0.0585603)
(102.328 0.157064 -0.0852831)
(102.548 -0.267175 -0.115648)
(102.427 -0.700914 -0.145327)
(102.031 -0.94885 -0.172701)
(101.564 -1.01068 -0.195127)
(101.179 -0.983022 -0.211956)
(100.902 -0.929245 -0.223776)
(100.705 -0.873083 -0.231809)
(100.562 -0.821102 -0.236963)
(100.458 -0.775718 -0.239906)
(100.383 -0.739535 -0.241183)
(100.331 -0.713095 -0.241403)
(100.294 -0.694461 -0.240959)
(100.269 -0.681802 -0.240136)
(100.252 -0.6738 -0.239154)
(100.239 -0.669263 -0.238182)
(100.23 -0.66725 -0.237331)
(100.223 -0.6671 -0.236662)
(100.218 -0.668326 -0.23621)
(100.213 -0.670502 -0.235985)
(100.208 -0.673277 -0.235978)
(100.204 -0.676341 -0.236167)
(100.2 -0.679467 -0.236525)
(100.197 -0.682155 -0.237057)
(100.195 -0.684342 -0.237723)
(100.194 -0.685873 -0.23851)
(100.196 -0.686595 -0.239437)
(100.201 -0.686437 -0.24057)
(100.215 -0.68532 -0.242087)
(100.006 0.00783926 0.000148448)
(100.027 0.0161231 0.000195255)
(100.068 0.0257601 -0.000105096)
(100.13 0.0373795 -0.000770598)
(100.22 0.0520073 -0.00224025)
(100.346 0.070186 -0.00480304)
(100.518 0.0919007 -0.00907924)
(100.747 0.11564 -0.0157756)
(101.04 0.136234 -0.0260142)
(101.391 0.140963 -0.0405565)
(101.766 0.109739 -0.0600787)
(102.087 0.0218255 -0.0844651)
(102.25 -0.119132 -0.112142)
(102.179 -0.265332 -0.140314)
(101.898 -0.358745 -0.165812)
(101.529 -0.388404 -0.187234)
(101.188 -0.383237 -0.203968)
(100.921 -0.367837 -0.215996)
(100.723 -0.351359 -0.224281)
(100.576 -0.336001 -0.229643)
(100.467 -0.322421 -0.232776)
(100.388 -0.311081 -0.234236)
(100.332 -0.301596 -0.234515)
(100.294 -0.293378 -0.233964)
(100.267 -0.285847 -0.233034)
(100.249 -0.278801 -0.231974)
(100.236 -0.272155 -0.230947)
(100.227 -0.265876 -0.230071)
(100.22 -0.259985 -0.229424)
(100.214 -0.25452 -0.229047)
(100.208 -0.249503 -0.228952)
(100.204 -0.244935 -0.229124)
(100.199 -0.240805 -0.229524)
(100.195 -0.237115 -0.230064)
(100.191 -0.2336 -0.230911)
(100.189 -0.230315 -0.231904)
(100.188 -0.227228 -0.232986)
(100.189 -0.224296 -0.234169)
(100.193 -0.2216 -0.235511)
(100.201 -0.219618 -0.237202)
(99.9934 0.00587959 0.00698168)
(99.9711 0.0118771 0.014758)
(99.9298 0.0181037 0.0238843)
(99.8685 0.024584 0.0353941)
(99.7859 0.0310436 0.0503181)
(99.68 0.0366961 0.0698796)
(99.55 0.0398575 0.0951878)
(99.3986 0.037575 0.127729)
(99.2345 0.0251642 0.168895)
(99.0772 -0.00372522 0.219084)
(98.9589 -0.0547843 0.277479)
(98.9202 -0.126582 0.341435)
(98.9868 -0.199892 0.406918)
(99.1501 -0.255648 0.468565)
(99.3674 -0.283406 0.522204)
(99.5902 -0.292261 0.566792)
(99.7905 -0.290867 0.602456)
(99.9596 -0.284176 0.630172)
(100.098 -0.2753 0.650848)
(100.207 -0.266381 0.665634)
(100.292 -0.258282 0.67542)
(100.357 -0.251199 0.681607)
(100.406 -0.245121 0.685592)
(100.443 -0.240361 0.687843)
(100.47 -0.236826 0.688849)
(100.491 -0.234259 0.689191)
(100.507 -0.232583 0.688929)
(100.519 -0.231703 0.688401)
(100.527 -0.231444 0.688036)
(100.533 -0.231652 0.687981)
(100.538 -0.232219 0.688256)
(100.541 -0.233076 0.688803)
(100.544 -0.234144 0.689771)
(100.547 -0.235371 0.6911)
(100.55 -0.236724 0.692618)
(100.554 -0.2382 0.694117)
(100.559 -0.239791 0.69532)
(100.566 -0.241462 0.696177)
(100.576 -0.243228 0.696483)
(100.592 -0.245212 0.696016)
(99.9936 0.0174778 0.00684236)
(99.9718 0.0353568 0.0144106)
(99.9312 0.0541162 0.0234479)
(99.8704 0.0739446 0.034866)
(99.7874 0.094227 0.0497073)
(99.6786 0.112912 0.0692487)
(99.5413 0.125358 0.0949326)
(99.3749 0.122877 0.128444)
(99.1851 0.090951 0.171409)
(98.9902 0.00885363 0.224784)
(98.8296 -0.140676 0.288161)
(98.7705 -0.351082 0.358311)
(98.8564 -0.574617 0.430395)
(99.0654 -0.73898 0.497259)
(99.3275 -0.821549 0.553609)
(99.5789 -0.85174 0.599057)
(99.7939 -0.851236 0.634831)
(99.9692 -0.834298 0.662238)
(100.108 -0.810824 0.682361)
(100.215 -0.786253 0.696326)
(100.296 -0.763375 0.705372)
(100.357 -0.743943 0.71139)
(100.401 -0.728251 0.715498)
(100.434 -0.715997 0.717982)
(100.458 -0.705565 0.719124)
(100.476 -0.696208 0.719403)
(100.49 -0.6883 0.71921)
(100.501 -0.682145 0.718887)
(100.509 -0.677638 0.718688)
(100.515 -0.674591 0.718742)
(100.521 -0.672861 0.719098)
(100.525 -0.672318 0.719771)
(100.529 -0.67279 0.720776)
(100.532 -0.674169 0.722052)
(100.536 -0.676388 0.723464)
(100.539 -0.679388 0.724836)
(100.544 -0.683143 0.725962)
(100.551 -0.687553 0.726661)
(100.559 -0.692487 0.726744)
(100.574 -0.697758 0.726092)
(99.994 0.0285744 0.00653743)
(99.9733 0.0579838 0.013786)
(99.9345 0.0893804 0.0225057)
(99.8755 0.1235 0.0335823)
(99.7926 0.16004 0.0481046)
(99.6799 0.196736 0.0674829)
(99.5301 0.227451 0.0934759)
(99.3359 0.238812 0.128224)
(99.0942 0.204585 0.174089)
(98.8216 0.0769018 0.233116)
(98.5761 -0.252153 0.305847)
(98.4658 -0.709258 0.388673)
(98.5861 -1.12639 0.471205)
(98.8882 -1.37017 0.54499)
(99.2321 -1.47184 0.60369)
(99.5335 -1.50143 0.649102)
(99.7773 -1.48482 0.684173)
(99.9663 -1.44647 0.710529)
(100.108 -1.40156 0.72922)
(100.212 -1.35659 0.74132)
(100.288 -1.31651 0.747762)
(100.34 -1.28009 0.752218)
(100.377 -1.25671 0.756171)
(100.405 -1.24453 0.75901)
(100.426 -1.23618 0.76028)
(100.443 -1.2287 0.760218)
(100.455 -1.22226 0.759295)
(100.463 -1.21722 0.757898)
(100.469 -1.21351 0.756309)
(100.473 -1.21101 0.754732)
(100.477 -1.20965 0.753314)
(100.479 -1.20938 0.752162)
(100.481 -1.21013 0.75134)
(100.482 -1.21183 0.750851)
(100.482 -1.21448 0.750629)
(100.483 -1.21807 0.750532)
(100.483 -1.22265 0.750357)
(100.485 -1.22817 0.749874)
(100.488 -1.23442 0.748918)
(100.496 -1.24066 0.74762)
(99.9946 0.0386609 0.00606128)
(99.9762 0.0787974 0.0127997)
(99.9411 0.122561 0.0209329)
(99.8865 0.17183 0.0313202)
(99.8072 0.2277 0.0450687)
(99.694 0.289635 0.0636766)
(99.5329 0.353477 0.0891769)
(99.3036 0.40687 0.124241)
(98.9773 0.420492 0.172305)
(98.4901 0.222656 0.237571)
(98.2325 0.0395465 0.270406)
(97.8904 -0.62316 0.346579)
(97.9552 -1.42989 0.426118)
(98.4313 -1.96004 0.49679)
(98.9316 -2.12398 0.549314)
(99.3298 -2.16353 0.587333)
(99.6495 -2.12768 0.61665)
(99.8858 -2.05486 0.638998)
(100.054 -1.97523 0.655042)
(100.173 -1.90281 0.665571)
(100.31 -1.93836 0.788437)
(100.342 -1.86773 0.791363)
(100.349 -1.81706 0.793698)
(100.353 -1.78601 0.795653)
(100.359 -1.76497 0.796976)
(100.362 -1.75073 0.797456)
(100.36 -1.74206 0.797058)
(100.354 -1.7375 0.795883)
(100.345 -1.7357 0.794081)
(100.333 -1.73574 0.79182)
(100.32 -1.73707 0.789286)
(100.304 -1.73932 0.786666)
(100.287 -1.7423 0.784124)
(100.267 -1.74597 0.781752)
(100.245 -1.75037 0.779557)
(100.222 -1.75565 0.777433)
(100.197 -1.76201 0.775151)
(100.172 -1.76969 0.77239)
(100.149 -1.77865 0.768853)
(100.123 -1.78766 0.764597)
(99.9957 0.0469615 0.00540806)
(99.9809 0.0961797 0.0114266)
(99.9523 0.151055 0.0186747)
(99.9067 0.215139 0.0279197)
(99.8379 0.292039 0.0401913)
(99.7348 0.385296 0.0569196)
(99.5782 0.497555 0.0801266)
(99.336 0.627357 0.112589)
(98.9043 0.761198 0.158038)
(98.5626 0.763304 0.183932)
(97.759 0.372066 0.24999)
(96.9597 -0.693589 0.334646)
(97.0507 -2.34385 0.427178)
(98.1659 -2.96857 0.499565)
(98.8859 -3.01695 0.537302)
(99.3638 -2.98762 0.558543)
(99.7333 -2.87171 0.576419)
(99.9733 -2.73395 0.591969)
(100.123 -2.60661 0.604283)
(100.211 -2.50311 0.612998)
(100.263 -2.4449 0.616698)
(100.131 -2.5937 0.73259)
(99.9953 -2.57515 0.727281)
(99.8685 -2.54563 0.717418)
(99.7568 -2.5139 0.706538)
(99.6513 -2.4875 0.695628)
(99.5502 -2.46692 0.684649)
(99.4544 -2.45042 0.673628)
(99.3642 -2.43663 0.662756)
(99.2793 -2.4247 0.652274)
(99.1988 -2.41408 0.642421)
(99.122 -2.40443 0.633411)
(99.0482 -2.39562 0.625385)
(98.9767 -2.38771 0.61839)
(98.907 -2.3809 0.612328)
(98.8388 -2.3755 0.606951)
(98.7722 -2.37197 0.601793)
(98.7081 -2.37101 0.596204)
(98.6489 -2.37386 0.589446)
(98.5902 -2.383 0.581182)
(99.9972 0.0525754 0.00457395)
(99.9875 0.108134 0.00965694)
(99.9686 0.171309 0.0157134)
(99.9376 0.247455 0.0233323)
(99.8891 0.343154 0.0333193)
(99.813 0.467414 0.0467876)
(99.6903 0.633468 0.0652811)
(99.4846 0.861039 0.0908985)
(99.0729 1.18073 0.126326)
(98.6663 1.3393 0.147551)
(97.7171 1.47615 0.176829)
(95.6162 0.702776 0.230849)
(94.411 -3.44449 0.322477)
(98.2295 -4.73583 0.398833)
(98.7616 -3.90957 0.391471)
(99.3491 -3.84535 0.358651)
(99.7506 -3.64048 0.349384)
(99.9008 -3.43027 0.351938)
(99.9018 -3.2594 0.354107)
(99.8069 -3.09493 0.348709)
(98.6148 -2.82844 0.364386)
(95.0228 -2.63124 0.313563)
(95.0987 -2.69496 0.323361)
(95.1895 -2.72588 0.325897)
(95.2656 -2.74395 0.326109)
(95.3298 -2.7596 0.325834)
(95.3895 -2.77311 0.325247)
(95.4478 -2.78271 0.324377)
(95.5054 -2.78748 0.323351)
(95.5623 -2.78734 0.322283)
(95.6184 -2.78275 0.321205)
(95.6738 -2.77454 0.320071)
(95.7283 -2.7638 0.318699)
(95.782 -2.75167 0.316849)
(95.8347 -2.73924 0.314218)
(95.8865 -2.72748 0.310411)
(95.9376 -2.71721 0.304882)
(95.9879 -2.70929 0.29686)
(96.0372 -2.70505 0.28518)
(96.0958 -2.70745 0.267907)
(99.999 0.0545674 0.00371791)
(99.9958 0.112582 0.00771044)
(99.9892 0.179495 0.0123104)
(99.9778 0.261889 0.0178913)
(99.959 0.368478 0.0249011)
(99.928 0.512442 0.0338939)
(99.8766 0.715235 0.0455091)
(99.79 1.01458 0.0602632)
(99.6195 1.48259 0.0780228)
(99.3527 1.87738 0.088375)
(98.635 2.80394 0.0980987)
(95.4905 5.78491 0.110438)
(77.1921 -4.44747 0.19167)
(50.8105 -3.27074 -1.17036)
(71.9726 -3.63398 -0.383099)
(77.2402 -3.12792 -0.258262)
(81.2335 -3.06601 -0.226707)
(84.1845 -3.08601 -0.221643)
(86.3479 -3.12958 -0.227601)
(92.7585 -3.69317 -0.336696)
(96.5222 -3.45996 -0.538356)
(96.663 -3.3393 -0.539687)
(96.8139 -3.25103 -0.536283)
(96.9396 -3.18611 -0.530154)
(97.047 -3.13587 -0.521074)
(97.144 -3.09525 -0.50893)
(97.2322 -3.06101 -0.494182)
(97.3113 -3.03094 -0.477589)
(97.3817 -3.00358 -0.460026)
(97.4446 -2.97811 -0.442405)
(97.5019 -2.95415 -0.425606)
(97.5553 -2.93161 -0.410387)
(97.6063 -2.91051 -0.397377)
(97.6564 -2.89089 -0.387051)
(97.7063 -2.87272 -0.379783)
(97.7568 -2.85586 -0.375968)
(97.808 -2.83992 -0.376093)
(97.8599 -2.82405 -0.380898)
(97.9254 -2.80609 -0.391293)
(100.001 0.0523992 0.00279652)
(100.005 0.108246 0.00563854)
(100.012 0.17311 0.0087088)
(100.022 0.253704 0.0120996)
(100.037 0.358945 0.01585)
(100.059 0.502081 0.019883)
(100.094 0.704003 0.0237911)
(100.156 0.999745 0.0263988)
(100.297 1.45047 0.0248487)
(100.344 1.85546 0.0223604)
(100.616 2.82931 0.00920511)
(102.421 5.33857 -0.0309696)
(110.983 4.05635 -0.0268718)
(109.04 -6.58162 -0.14285)
(102.737 -6.78699 -0.259144)
(101.07 -4.96707 -0.316904)
(100.632 -3.97291 -0.350412)
(100.478 -3.44077 -0.373799)
(100.409 -3.1335 -0.391333)
(100.355 -2.94837 -0.405449)
(100.273 -2.75683 -0.503485)
(100.306 -2.37408 -0.698428)
(100.296 -2.2641 -0.70104)
(100.288 -2.19762 -0.69854)
(100.281 -2.15808 -0.695134)
(100.273 -2.13227 -0.69144)
(100.264 -2.11503 -0.687071)
(100.256 -2.10426 -0.681907)
(100.247 -2.09841 -0.676071)
(100.238 -2.09616 -0.669793)
(100.229 -2.09651 -0.663391)
(100.22 -2.09871 -0.657253)
(100.212 -2.10217 -0.651787)
(100.205 -2.10632 -0.647358)
(100.198 -2.11066 -0.644348)
(100.194 -2.11464 -0.643113)
(100.19 -2.11763 -0.644042)
(100.189 -2.11884 -0.647556)
(100.192 -2.11701 -0.654061)
(100.203 -2.10997 -0.663485)
(100.003 0.0459563 0.00178689)
(100.013 0.0949723 0.00359939)
(100.033 0.151908 0.00526645)
(100.063 0.222555 0.00660433)
(100.109 0.314215 0.00731065)
(100.176 0.436746 0.00678613)
(100.28 0.603963 0.00385709)
(100.444 0.834852 -0.00368514)
(100.756 1.15316 -0.0199689)
(100.979 1.38829 -0.0314658)
(101.82 1.83504 -0.0711918)
(103.421 1.72819 -0.144061)
(105.184 -0.27085 -0.242051)
(104.724 -2.84595 -0.34829)
(102.939 -3.58626 -0.437391)
(101.723 -3.37149 -0.498754)
(101.096 -3.02111 -0.538764)
(100.763 -2.72516 -0.564652)
(100.573 -2.50313 -0.581614)
(100.45 -2.33719 -0.592953)
(100.364 -2.20189 -0.599817)
(100.276 -1.89909 -0.758321)
(100.25 -1.8572 -0.756672)
(100.236 -1.82548 -0.753561)
(100.229 -1.80203 -0.749916)
(100.227 -1.78356 -0.74578)
(100.227 -1.76853 -0.741101)
(100.227 -1.75651 -0.735997)
(100.228 -1.74715 -0.730668)
(100.227 -1.73996 -0.725322)
(100.226 -1.73441 -0.720172)
(100.225 -1.73007 -0.715436)
(100.222 -1.7265 -0.71132)
(100.219 -1.72331 -0.707992)
(100.215 -1.72004 -0.705638)
(100.212 -1.71627 -0.70444)
(100.21 -1.71154 -0.70461)
(100.21 -1.70532 -0.706397)
(100.213 -1.69724 -0.710054)
(100.225 -1.68761 -0.715691)
(100.004 0.0357108 0.00111282)
(100.02 0.0737746 0.00206244)
(100.05 0.117849 0.00252741)
(100.096 0.172169 0.00216542)
(100.165 0.241534 0.000426636)
(100.264 0.331637 -0.003634)
(100.409 0.448541 -0.011576)
(100.625 0.596476 -0.0259816)
(100.953 0.771432 -0.0510382)
(101.43 0.852316 -0.0926299)
(102.058 0.753794 -0.156527)
(102.722 0.230047 -0.245806)
(103.071 -0.744197 -0.351255)
(102.822 -1.5698 -0.462463)
(102.184 -1.87918 -0.556746)
(101.56 -1.88708 -0.625507)
(101.118 -1.80343 -0.671909)
(100.831 -1.70049 -0.702243)
(100.641 -1.6018 -0.721577)
(100.508 -1.513 -0.733002)
(100.418 -1.43446 -0.738453)
(100.36 -1.36297 -0.739146)
(100.322 -1.30444 -0.738354)
(100.297 -1.25595 -0.73677)
(100.282 -1.21672 -0.734329)
(100.272 -1.18561 -0.731249)
(100.265 -1.16122 -0.727917)
(100.26 -1.14244 -0.724654)
(100.256 -1.1284 -0.72168)
(100.253 -1.1183 -0.719146)
(100.249 -1.11139 -0.717163)
(100.245 -1.10697 -0.715808)
(100.241 -1.10443 -0.715135)
(100.236 -1.10315 -0.715164)
(100.232 -1.10255 -0.715932)
(100.228 -1.1021 -0.717479)
(100.225 -1.10126 -0.71987)
(100.224 -1.09958 -0.723199)
(100.225 -1.0968 -0.727562)
(100.229 -1.09312 -0.732885)
(100.006 0.0226195 0.000603694)
(100.025 0.0466622 0.000899949)
(100.062 0.074437 0.000531356)
(100.119 0.108337 -0.000968446)
(100.202 0.15095 -0.00434989)
(100.319 0.204757 -0.0106574)
(100.482 0.271135 -0.0215468)
(100.707 0.347618 -0.0394497)
(101.012 0.421346 -0.0677107)
(101.405 0.454031 -0.110343)
(101.86 0.390166 -0.170964)
(102.281 0.155527 -0.250505)
(102.498 -0.261803 -0.343583)
(102.382 -0.687829 -0.438503)
(101.995 -0.929729 -0.522799)
(101.54 -0.989536 -0.588365)
(101.165 -0.962043 -0.635361)
(100.893 -0.909294 -0.667743)
(100.699 -0.854234 -0.689375)
(100.557 -0.803209 -0.702926)
(100.452 -0.75867 -0.710324)
(100.376 -0.723381 -0.713217)
(100.323 -0.697419 -0.7135)
(100.285 -0.678722 -0.712056)
(100.259 -0.665742 -0.709355)
(100.242 -0.657309 -0.705885)
(100.231 -0.65232 -0.70212)
(100.223 -0.649889 -0.698424)
(100.218 -0.649401 -0.695048)
(100.215 -0.650394 -0.692158)
(100.213 -0.652443 -0.68986)
(100.211 -0.655184 -0.688208)
(100.209 -0.658273 -0.687218)
(100.208 -0.661409 -0.686877)
(100.206 -0.664257 -0.687209)
(100.205 -0.666584 -0.688168)
(100.205 -0.668156 -0.689746)
(100.206 -0.668802 -0.691992)
(100.21 -0.668447 -0.695009)
(100.221 -0.66716 -0.698962)
(100.006 0.00773942 0.000353638)
(100.027 0.0159492 0.000364395)
(100.068 0.0254037 -0.00046912)
(100.13 0.0368706 -0.00249008)
(100.219 0.0511606 -0.00671293)
(100.344 0.0689393 -0.0140597)
(100.513 0.0901989 -0.026195)
(100.738 0.113479 -0.0453887)
(101.025 0.133615 -0.0746833)
(101.369 0.138412 -0.116877)
(101.735 0.108228 -0.174257)
(102.05 0.0227421 -0.246662)
(102.212 -0.114703 -0.329649)
(102.144 -0.257581 -0.414447)
(101.871 -0.348337 -0.491385)
(101.51 -0.377165 -0.554172)
(101.176 -0.372103 -0.601137)
(100.913 -0.357005 -0.634359)
(100.716 -0.340849 -0.656977)
(100.569 -0.32574 -0.671429)
(100.458 -0.312372 -0.679641)
(100.377 -0.301215 -0.683235)
(100.32 -0.291775 -0.683701)
(100.28 -0.283428 -0.682141)
(100.253 -0.275763 -0.679473)
(100.235 -0.268611 -0.676238)
(100.224 -0.261883 -0.672848)
(100.217 -0.255557 -0.669648)
(100.213 -0.249669 -0.666894)
(100.21 -0.244268 -0.664754)
(100.208 -0.239376 -0.663315)
(100.207 -0.23499 -0.662605)
(100.205 -0.231077 -0.662593)
(100.204 -0.227582 -0.663182)
(100.202 -0.224396 -0.664556)
(100.201 -0.221453 -0.666497)
(100.2 -0.218676 -0.668921)
(100.201 -0.216014 -0.671845)
(100.203 -0.213537 -0.67534)
(100.209 -0.211735 -0.67953)
(99.9937 0.00577991 0.011321)
(99.9723 0.0116737 0.0237333)
(99.9328 0.0178151 0.0384735)
(99.8745 0.024214 0.056978)
(99.7961 0.0306159 0.0808583)
(99.6959 0.0362979 0.11206)
(99.5732 0.0397123 0.152704)
(99.4306 0.0380759 0.20518)
(99.2764 0.0269571 0.27168)
(99.1285 0.000388628 0.353263)
(99.0176 -0.0471762 0.448966)
(98.9812 -0.113994 0.554493)
(99.0438 -0.182742 0.662085)
(99.1977 -0.234982 0.763293)
(99.403 -0.260853 0.851135)
(99.6147 -0.26893 0.923572)
(99.8064 -0.267274 0.981274)
(99.9697 -0.260628 1.02597)
(100.104 -0.251996 1.05944)
(100.213 -0.243466 1.08353)
(100.298 -0.235678 1.10008)
(100.365 -0.228538 1.11119)
(100.415 -0.222149 1.11881)
(100.452 -0.217102 1.12422)
(100.48 -0.213456 1.12806)
(100.5 -0.210891 1.13071)
(100.514 -0.209195 1.13249)
(100.524 -0.208235 1.13379)
(100.53 -0.207865 1.13499)
(100.533 -0.207942 1.13634)
(100.535 -0.208357 1.13796)
(100.535 -0.20904 1.13992)
(100.536 -0.20993 1.14225)
(100.536 -0.210977 1.14487)
(100.538 -0.212141 1.1476)
(100.54 -0.213411 1.1502)
(100.544 -0.214782 1.15239)
(100.55 -0.216241 1.15383)
(100.559 -0.217807 1.15415)
(100.576 -0.219586 1.1528)
(99.9939 0.0171751 0.0110744)
(99.973 0.0347417 0.0232383)
(99.9343 0.0531985 0.0377498)
(99.8766 0.0727166 0.0560431)
(99.798 0.0927363 0.0797912)
(99.6953 0.111369 0.111092)
(99.566 0.124303 0.152402)
(99.4097 0.123342 0.206584)
(99.2317 0.0947245 0.276524)
(99.0489 0.0187809 0.364299)
(98.8988 -0.121167 0.469677)