/*--------------------------------*- C++ -*----------------------------------*\
| =========                 |                                                 |
| \\      /  F ield         | OpenFOAM: The Open Source CFD Toolbox           |
|  \\    /   O peration     | Version:  2306                                  |
|   \\  /    A nd           | Website:  www.openfoam.com                      |
|    \\/     M anipulation  |                                                 |
\*---------------------------------------------------------------------------*/
FoamFile
{
    version     2.0;
    format      ascii;
    arch        "LSB;label=32;scalar=64";
    class       volVectorField;
    location    "1.25";
    object      Force;
}
// * * * * * * * * * * * * * * * * * * * * * * * * * * * * * * * * * * * * * //

dimensions      [1 1 -2 0 0 0 0];

internalField   uniform (0 0 0);

boundaryField
{
    walls
    {
        type            calculated;
        value           uniform (0 0 0);
    }
    inlet
    {
        type            calculated;
        value           uniform (0 0 0);
    }
    outlet
    {
        type            calculated;
        value           uniform (0 0 0);
    }
    NASA
    {
        type            calculated;
        value           nonuniform List<vector> 
14179
(
(-0.0146362 -0.134585 1.44839e-06)
(-0.0131075 -0.108335 6.82299e-07)
(-0.0682013 -0.551623 0.000135642)
(-0.101187 -0.813867 0.000365183)
(-0.0668836 -0.541424 7.20862e-05)
(-0.109747 -0.882614 0.000445098)
(0.217536 0.944589 -3.09128e-05)
(0.0945135 0.474471 -3.78187e-05)
(0.648142 3.17798 0.00466471)
(0.097908 0.491508 -4.07285e-05)
(-0.000979416 -0.0104862 1.4473e-06)
(-0.0178192 -0.1457 0.000108323)
(0.130259 0.650513 -0.000267112)
(-0.0354841 -0.322761 0.000360277)
(0.0617231 0.308099 -0.000111221)
(1.37735 0.929086 0.00280512)
(1.39094 0.921659 -0.000157132)
(0.0217875 0.122096 -1.18653e-05)
(0.159914 0.948807 -9.32249e-05)
(1.279 0.847779 0.00023893)
(-0.0171879 -0.240459 -1.71861e-05)
(-0.0214515 -0.199439 -0.000147372)
(-0.0196573 -0.272894 -0.000265605)
(-0.00879571 -0.0640344 4.30211e-07)
(-0.0132926 -0.109924 6.38957e-06)
(-0.00950738 -0.0692125 7.98437e-06)
(-0.0129253 -0.106472 0.00014952)
(-0.0150868 -0.108145 0.000157211)
(-0.0132862 -0.121368 0.000173017)
(-0.0155589 -0.213587 0.00330974)
(0.046817 0.204441 3.93218e-05)
(0.0525895 0.247945 1.10238e-05)
(0.0565309 0.266535 -5.02172e-05)
(0.0461792 0.20116 -1.47414e-05)
(0.06685 0.245294 4.75164e-07)
(0.0673009 0.246872 -9.28567e-07)
(0.0337985 0.122658 1.27229e-06)
(0.0353075 0.128106 -9.97014e-07)
(-0.00193269 -0.00929459 0.000127858)
(-0.0130471 -0.0634897 0.000546863)
(0.169455 0.61886 -1.73769e-06)
(0.0992332 0.357761 0.000341187)
(0.096949 0.4864 -1.23537e-05)
(-0.00609948 -0.0428465 1.91288e-06)
(-0.00555123 -0.0390003 -7.15244e-06)
(0.152491 0.765568 -1.11514e-05)
(-0.00976546 -0.0675655 0.000132434)
(0.0968886 0.483672 0.000195148)
(0.0900744 0.45005 7.21733e-05)
(0.107624 0.439697 -0.000303035)
(0.0844743 0.314015 -1.32452e-05)
(0.0841157 0.312662 -1.63836e-05)
(-0.0577775 1.41147 -7.11375e-05)
(1.3866 0.92181 -0.000704182)
(-0.0602695 1.48157 8.00053e-05)
(-0.00240015 1.15187 -3.12879e-05)
(0.0669487 1.01245 5.50595e-05)
(0.0686193 1.03641 -8.28339e-05)
(-0.00246148 1.22852 -1.68316e-05)
(0.0974962 0.383294 -2.67907e-05)
(0.156705 0.928648 -5.67599e-05)
(0.0078273 0.0284822 8.37275e-05)
(-0.0228036 0.566046 0.000150096)
(0.925187 0.631237 0.0783596)
(-0.000739092 0.532299 -0.000152735)
(0.0269456 0.409632 5.98099e-06)
(0.127145 0.744161 0.00818924)
(-0.0147497 -0.147557 3.48038e-06)
(-0.0145774 -0.134126 1.69234e-06)
(-0.099585 -0.801091 0.000357084)
(-0.0115802 -0.0918126 1.24012e-06)
(-0.0130847 -0.108152 1.2785e-06)
(1.32443 0.876869 -0.000401704)
(1.27707 0.845779 -0.000172992)
(0.345254 2.0469 -0.00125151)
(0.260182 1.53713 -0.000657024)
(-0.110966 -0.893532 -0.00104133)
(-0.0567471 -0.353179 0.000208091)
(-0.0557001 -0.348772 0.000182849)
(-0.0428785 -0.25154 0.00017086)
(0.156468 0.675208 -0.000366753)
(0.175711 0.759705 -0.000392024)
(0.762877 1.30978 -5.82829e-05)
(0.763354 1.30859 -0.00033533)
(0.0947049 0.475292 -2.59869e-05)
(0.0875052 0.420436 -2.2484e-05)
(-0.000420976 -0.00408876 -9.67406e-07)
(0.00130073 0.00640043 7.63691e-08)
(0.00133355 0.00658769 -1.40577e-06)
(-0.000411995 -0.00402607 1.84919e-07)
(0.0988765 0.496327 -1.05712e-05)
(0.0896682 0.462499 -2.76269e-05)
(-0.020025 -0.163679 0.000113087)
(-0.013484 -0.0965759 8.32345e-05)
(-0.0202832 -0.144856 9.92296e-05)
(-0.0123062 -0.0848261 7.96725e-05)
(-0.0180508 -0.123801 4.25622e-05)
(0.0854458 0.426356 -0.000255415)
(-0.0200013 -0.181983 0.000109364)
(-0.0245919 -0.338378 0.000522456)
(-0.0207757 -0.291943 -0.000403337)
(0.0801464 0.400277 -0.000210836)
(1.37441 0.923003 -0.00270719)
(0.0960297 0.565941 -3.42886e-05)
(0.101336 0.566728 -1.90533e-05)
(0.101416 0.566794 -2.73367e-05)
(0.175124 1.21892 -3.36914e-06)
(0.103764 0.615235 -3.36937e-05)
(0.160642 0.952647 -5.35929e-05)
(0.0206741 0.0195266 1.96954e-05)
(0.358385 -0.132064 0.00359794)
(0.365732 -0.144995 0.00172679)
(0.0116387 0.0111654 -2.96094e-05)
(-0.00661552 -0.0283995 8.85095e-05)
(0.0216766 0.0799056 1.52253e-05)
(0.00250595 0.00863134 6.70143e-05)
(0.021827 0.0878201 0.000108077)
(-0.00940005 -0.0419603 4.15256e-05)
(-0.00183306 -0.0103453 8.54919e-05)
(0.00429389 0.0179002 3.80878e-05)
(-0.0181269 -0.087668 5.23625e-05)
(-0.0010696 0.729087 -0.000249035)
(0.0406442 0.607153 -0.000254781)
(-0.00155954 0.976771 -0.000376003)
(0.0317101 0.480227 -0.000524776)
(-0.0346103 0.86503 -0.000506784)
(1.10471 0.743136 -0.000138595)
(-0.0468924 1.15975 -0.000432362)
(0.109461 0.647749 -0.00128224)
(0.156362 0.612298 -0.000536479)
(0.117426 0.459223 -0.000152579)
(0.10829 0.395138 -0.000107133)
(0.153454 0.560632 -0.000175312)
(0.0630703 0.227564 -5.90372e-05)
(0.086304 0.311919 -0.000162777)
(-0.0132897 -0.14971 -4.84703e-06)
(-0.0170699 -0.238494 9.10847e-09)
(-0.0106326 -0.0818802 1.23966e-06)
(-0.00864326 -0.0629269 3.29204e-08)
(0.000287628 0.000136641 0.530434)
(-0.0129587 -0.101976 0.000147025)
(0.000261411 0.000132695 0.504337)
(-0.0144005 -0.109738 0.000165004)
(0.000544347 0.000296524 0.574099)
(-0.0130072 -0.129879 0.000252824)
(0.000765058 0.000745577 0.575187)
(-0.0121076 -0.139428 0.00105657)
(0.0523742 0.246922 -1.12966e-05)
(0.0390884 0.177767 -2.6511e-06)
(0.0393984 0.179195 -7.98135e-06)
(0.0464021 0.202086 -5.3707e-06)
(0.0456466 0.201065 -4.96282e-06)
(0.0458828 0.20211 -7.90179e-06)
(0.0667556 0.244882 -7.69806e-08)
(0.0239103 0.118913 -5.97173e-06)
(0.021351 0.108316 -5.07261e-06)
(0.0345375 0.125315 4.5998e-06)
(0.0289938 0.10203 7.17239e-07)
(-0.00638533 -0.0292442 0.000190249)
(-0.00544985 -0.0259668 0.000222383)
(0.000235275 8.02054e-05 0.320403)
(0.000242118 6.03617e-05 0.313674)
(0.000235483 5.65379e-05 0.309616)
(0.000279128 8.08617e-05 0.356459)
(0.0939328 0.320087 0.000547382)
(0.160007 0.559498 0.00429284)
(-4.02846e-05 0.000166283 0.336656)
(0.000175295 -0.000196529 0.305126)
(0.000120081 4.29018e-05 0.108209)
(0.0819452 0.28769 0.000298233)
(0.285349 0.662868 8.73902e-07)
(0.167697 0.591194 6.79314e-05)
(0.166006 0.585264 -1.23646e-05)
(0.0831355 0.388321 -1.79396e-05)
(0.0840839 0.392777 -2.17984e-05)
(0.137441 0.656585 -3.15306e-05)
(0.0817128 0.363934 -1.98808e-05)
(0.0860379 0.390574 -1.5235e-05)
(0.0872198 0.395859 -2.2272e-05)
(0.0816884 0.363938 -9.53696e-06)
(-0.00495877 -0.0347985 -8.90047e-07)
(-0.00602416 -0.0423212 -1.10862e-06)
(0.136369 0.72243 -2.41988e-05)
(0.267685 0.461643 0.0116215)
(0.000523697 0.0020393 0.863463)
(0.000348545 0.000836106 0.412371)
(0.0489079 0.142262 0.000224321)
(-0.0118439 -0.0738891 0.000193862)
(-0.0118643 -0.0748945 0.00033742)
(0.000613975 0.000755342 0.674792)
(0.000180194 -0.000175428 0.309708)
(0.0959623 0.492577 0.00117712)
(0.000313892 -0.000297007 0.373013)
(0.139573 0.733612 0.00570706)
(0.000365996 0.000198054 0.34605)
(0.000224527 6.08097e-05 0.327815)
(-0.000526059 -0.000297639 0.350712)
(6.87981e-05 0.000127921 0.112258)
(0.0803029 0.383704 3.419e-05)
(0.102874 0.477954 0.00107325)
(0.000337865 -9.58542e-05 0.205451)
(9.33825e-05 0.000235417 0.107663)
(0.169068 0.710549 0.00223783)
(0.0844952 0.31408 -9.55068e-06)
(0.0804541 0.307979 -1.75316e-05)
(0.0958786 0.390847 -1.78217e-05)
(0.0673219 0.271142 -4.47791e-06)
(-0.871276 2.78553 -0.0213973)
(-0.0595147 1.45844 -6.27652e-05)
(-0.1896 1.77232 0.000763901)
(0.0670761 1.01274 -3.67762e-05)
(0.0487002 1.04038 -3.01216e-05)
(-0.00238123 1.18583 -4.73649e-05)
(0.0288655 1.08336 -3.427e-05)
(0.106745 1.17172 -5.9774e-06)
(0.134775 1.73994 -4.464e-05)
(0.132908 1.71573 -1.08529e-05)
(0.10721 1.17713 -4.75913e-05)
(0.125024 1.27719 -2.49581e-05)
(0.135003 1.256 2.1241e-05)
(0.136309 1.26863 -5.35432e-05)
(0.124697 1.27335 1.76615e-05)
(0.0693119 0.287313 -1.55305e-05)
(0.0622924 0.247281 -1.19395e-05)
(0.0970195 0.381379 -1.16947e-05)
(0.10491 0.710345 -1.98202e-05)
(0.109881 0.691758 -3.4001e-05)
(-0.000658061 -0.000780886 0.565717)
(0.000479808 0.00132468 0.892411)
(0.0013421 0.00446364 0.000135926)
(-3.70753e-05 0.00190295 0.738379)
(0.00244595 0.00848078 0.000135041)
(0.000173525 0.00948595 0.273337)
(-0.0605543 0.581191 -0.000414512)
(0.00705468 -0.00483885 1.74803)
(0.000198673 0.000133361 0.303329)
(0.0141336 0.516692 -0.000201227)
(0.00059262 -0.000231297 0.244517)
(0.0232098 0.485733 -5.07031e-05)
(0.0612613 0.527088 -0.000194433)
(0.0610059 0.517383 -0.000160058)
(0.000248084 0.00011827 0.243565)
(0.000270906 0.000127741 0.267913)
(0.0574211 0.529792 -9.7604e-05)
(0.0521776 0.526405 0.000185524)
(0.0471877 0.51662 0.00149832)
(1.8456e-05 -0.00100679 0.222301)
(-0.0192225 -0.105528 0.00104057)
(-0.000108712 0.000119593 0.500246)
(0.0914341 0.508455 0.000226389)
(0.000231994 5.23786e-05 0.319049)
(0.000235467 5.40386e-05 0.320522)
(0.47693 -0.189996 -0.00397785)
(0.227998 0.215585 0.00252479)
(0.000168145 7.82949e-06 0.0809962)
(-0.0541442 -0.532685 0.000193207)
(-0.0718281 -0.580245 0.000215851)
(-0.0570964 -0.561043 0.000225674)
(-0.072322 -0.584168 0.000219782)
(-0.0778806 -0.628271 0.0002586)
(-0.0596474 -0.585574 0.000241251)
(-0.0842758 -0.67908 0.00028668)
(0.178477 0.772519 -0.000407869)
(0.447549 2.19166 -0.00098675)
(0.181985 0.788132 -0.000411467)
(0.427041 2.09065 -0.000952547)
(-0.0670663 -0.542775 8.22907e-05)
(-0.0427557 -0.266641 0.000137029)
(-0.105303 -0.846674 0.000388387)
(-0.0483473 -0.301079 0.000157394)
(1.39385 0.923539 -0.000244047)
(1.3923 0.922536 -0.000136645)
(0.237989 1.03361 -6.35821e-05)
(0.619902 3.0422 -0.000381006)
(0.573846 2.8158 -0.000200415)
(0.244739 1.06274 -0.000128697)
(0.410668 2.43458 -0.000164523)
(0.451116 2.67448 -0.000395259)
(-0.00168065 -0.0136993 3.1526e-06)
(-0.00109577 -0.0107035 1.32489e-06)
(0.0215234 0.121665 -1.78712e-05)
(0.0220919 0.124394 -1.3439e-05)
(0.0490507 0.212844 2.35482e-05)
(0.0357314 0.162237 1.95734e-05)
(0.0590128 0.256833 -1.02767e-05)
(0.0276771 0.12474 5.01127e-05)
(-0.10885 -0.876002 0.000456163)
(-0.0693763 -0.504201 0.000257068)
(0.016741 0.0783966 8.7649e-05)
(-0.0112734 -0.0624585 9.03999e-05)
(0.0634585 0.231409 -0.000131264)
(0.071404 0.260348 -0.000124205)
(0.0344794 0.124293 -7.22283e-05)
(0.0398957 0.14381 -6.89197e-05)
(0.289624 1.31032 -7.80988e-05)
(0.179832 0.780126 5.02944e-05)
(0.324372 1.53374 -0.000156393)
(0.139104 0.697805 -1.09667e-05)
(-0.0190319 -0.160191 0.000158188)
(-0.0436768 -0.323762 0.000277549)
(-0.00709465 -0.0518211 -1.84824e-05)
(-6.20096e-05 -0.0055136 1.75354e-06)
(-0.0190342 -0.130333 1.18154e-05)
(-0.0252521 -0.176406 6.24412e-05)
(0.0966585 0.395206 0.000179368)
(0.0838008 0.311497 -3.33503e-05)
(0.0839886 0.312195 -2.25945e-05)
(0.108048 0.443242 -0.000622105)
(0.164759 0.723647 -0.000108232)
(0.141146 0.650401 6.062e-05)
(0.172013 0.756044 -7.33315e-05)
(0.180717 0.842736 6.34003e-05)
(-0.00252004 1.22794 1.43148e-06)
(0.0751436 1.13147 -0.000137774)
(-0.00305631 1.48741 -0.00014121)
(0.0720743 1.08784 -0.000109552)
(-0.0601943 1.47175 -3.55527e-05)
(1.38891 0.92164 -0.000350914)
(-0.0688015 1.68364 -0.000171392)
(0.476096 4.0814 -0.00142201)
(0.0947846 0.37245 -1.2484e-05)
(0.0915623 0.359697 -1.29441e-05)
(0.070887 0.259833 9.74666e-06)
(0.0677825 0.248544 -3.10517e-06)
(0.0562786 0.294953 -5.98256e-05)
(0.182729 0.901902 -0.000956287)
(0.0210701 0.117223 -4.90181e-05)
(0.0465671 0.24981 -2.28726e-05)
(0.7424 4.64345 0.0030159)
(0.344394 2.30014 0.000734574)
(0.0368159 0.133455 6.10603e-06)
(0.0354572 0.128595 8.1731e-08)
(1.26064 0.837536 0.00127819)
(0.0898599 0.622192 -0.000315466)
(0.253493 0.237783 3.15952e-05)
(0.497799 -0.2064 -7.86364e-05)
(0.240296 0.226108 -5.09298e-05)
(0.516675 -0.214593 -0.000347018)
(0.0668465 0.245223 -1.77903e-06)
(0.0305003 0.107303 -1.56815e-07)
(0.0349902 0.126968 4.22357e-06)
(0.285304 0.662751 -1.14389e-05)
(0.275425 0.808447 -3.29298e-05)
(0.000429721 0.000950015 0.726613)
(0.000148502 0.000204331 0.361485)
(0.000309473 -0.000302418 0.382333)
(-0.188726 1.74995 -0.000120725)
(-0.0581267 1.42149 -3.73807e-05)
(1.3826 0.922525 -0.00142557)
(0.0240164 0.0226859 1.99948e-05)
(0.3605 -0.148155 0.000134229)
(0.361675 -0.147035 0.000583286)
(0.0250451 0.0236276 1.09421e-05)
(0.000217987 -0.000243409 0.543795)
(0.000189244 -0.00014609 0.379713)
(0.000197752 5.57969e-05 0.340936)
(0.000372015 0.000192356 0.363782)
(-0.0910389 -0.732966 0.00031617)
(1.36059 0.900881 -0.00043153)
(1.34705 0.891898 -0.000418769)
(1.32048 0.874269 -0.000401655)
(1.34611 0.89127 -0.000417549)
(0.396861 1.94179 -0.000893027)
(0.175164 0.757547 -0.000398052)
(0.177139 0.766589 -0.000404613)
(0.419293 2.05254 -0.000941443)
(0.26959 1.59303 -0.00070899)
(0.28826 1.70367 -0.000723362)
(-0.0248602 -0.146898 8.98063e-05)
(-0.0315187 -0.18542 0.000112189)
(-0.0556294 -0.346075 0.000193141)
(-0.0503367 -0.313332 0.000166462)
(-0.0410253 -0.240583 0.000153664)
(-0.0340156 -0.199867 0.000122139)
(0.25297 2.15234 -0.000871503)
(0.240027 2.04167 -0.000951105)
(0.0248729 0.0917973 6.49178e-06)
(0.0233274 0.0941995 -1.45418e-05)
(0.0348105 0.1415 0.000192201)
(0.0328489 0.12147 -1.70729e-05)
(0.00155721 0.00574198 6.92607e-05)
(0.0264642 0.113088 0.000120042)
(0.0355898 0.153596 6.17382e-05)
(0.0208522 0.0925752 0.00010714)
(0.0407477 0.150859 -3.74812e-05)
(0.0447936 0.182615 0.000206974)
(0.0351073 0.129874 -2.34005e-05)
(0.0425018 0.634622 -0.000253072)
(-0.0016437 1.01976 -0.000392013)
(-0.00183511 1.12383 -0.000429852)
(0.0468084 0.699172 -0.000283015)
(-0.0542454 1.34042 -0.000507261)
(1.31162 0.868366 -0.000388686)
(-0.0567159 1.40112 -0.000533452)
(-0.0487118 1.20445 -0.000452877)
(-0.0530507 1.31108 -0.000495249)
(1.30861 0.866366 -0.000388836)
(-0.00188904 1.15209 -0.00044106)
(0.0511128 0.764577 -0.00030279)
(-0.00199581 1.2083 -0.000464729)
(0.0481183 0.719228 -0.000262818)
(0.226156 1.3355 -0.000583066)
(0.409755 2.55175 -0.00310634)
(0.236882 1.57766 -0.000694899)
(0.246445 1.4556 -0.000682905)
(0.404341 2.52181 -0.00106413)
(0.376692 2.34833 -0.00102729)
(0.195065 1.29759 -0.00133392)
(-0.081144 -0.595655 -7.01243e-05)
(-0.101914 -0.82075 0.000387892)
(-0.0667193 -0.442976 0.000239405)
(-0.0568737 -0.354437 0.000231243)
(-0.0800497 -0.537092 0.000202103)
(-0.0531427 -0.332096 0.000231512)
(-0.0242994 -0.135232 0.000123641)
(-0.0446794 -0.262514 0.000206608)
(0.00369574 0.0118416 0.000230303)
(-0.0472841 -0.279178 0.000183362)
(0.230678 1.03668 -0.000531713)
(0.179257 0.774565 -0.000376133)
(0.237514 1.11932 -0.000534202)
(0.177213 0.765993 -0.000383189)
(0.224827 1.0137 -0.000500112)
(0.240961 1.13421 -0.0008596)
(0.367063 1.79397 -0.000929168)
(0.105354 0.411932 -0.000150627)
(0.089185 0.348632 -0.000159648)
(0.0951993 0.347272 -0.000112436)
(0.0751131 0.273878 -0.000120593)
(0.086612 0.338606 -0.0001687)
(0.080652 0.315372 -0.000173147)
(0.0553292 0.199569 -6.1452e-05)
(0.0424343 0.152965 -6.70746e-05)
(0.123073 0.285282 -4.94057e-05)
(0.10441 0.241912 -7.69227e-06)
(-0.0206459 -0.156492 0.000116753)
(-0.0181406 -0.129766 0.000105881)
(0.0810456 0.414294 -0.000488485)
(0.0856159 0.427396 -0.000185041)
(0.123826 0.653707 -0.000928059)
(-0.0191751 -0.189547 4.74664e-05)
(-0.0197992 -0.180546 0.000122523)
(-0.0170928 -0.188126 -0.000194947)
(-0.0210992 -0.292784 0.000117613)
(0.0769721 0.368472 -0.000309694)
(0.08151 0.406942 -0.000164275)
(-0.00420224 -0.0177464 6.02142e-05)
(0.00583198 0.0224456 0.000103621)
(-0.000724244 -0.00356567 7.05667e-05)
(0.0127196 0.0465868 5.31681e-05)
(0.0175813 0.645501 -0.000238337)
(-0.00128611 0.842272 -0.000347576)
(0.0268032 0.56542 -0.000280063)
(0.0359756 0.538607 -0.000306046)
(-0.104981 0.998423 -0.00183374)
(-0.0409071 1.01447 -0.000452096)
(1.22436 0.817682 0.0027615)
(-0.458207 1.49128 -0.000326847)
(-0.0447646 1.10805 -0.00043516)
(-0.14031 1.30598 -0.000453989)
(-0.0119334 -0.0623617 9.01111e-05)
(-0.00877605 -0.045161 7.57267e-05)
(-0.0105428 -0.0540071 8.58419e-05)
(-0.0101401 -0.053192 8.11347e-05)
(-0.0248708 -0.136538 -3.02693e-06)
(0.000616476 0.000424265 0.386365)
(0.0581986 0.391608 -0.00018476)
(0.0918577 0.636126 -0.000418394)
(0.0602554 0.405181 -0.000256856)
(0.12639 0.461335 -0.000107931)
(0.153742 0.561454 -0.000147565)
(0.0729307 0.263231 -5.72279e-05)
(0.0618165 0.216273 -5.4661e-05)
(0.0814935 0.285666 -0.000254425)
(0.0892214 0.322234 -9.44981e-05)
(0.446414 -0.186546 -0.00282953)
(0.21682 0.199117 0.000884945)
(0.264415 0.245951 0.000231658)
(0.520412 -0.217104 -0.00117268)
(0.227723 0.987468 -0.000443951)
(0.567344 2.78118 -0.00117418)
(0.210629 0.913535 -0.000356168)
(0.543365 2.66327 -0.00118283)
(-0.067747 -0.548068 0.000114026)
(-0.00278455 -0.020452 7.24506e-06)
(-0.00237348 -0.0179168 5.55719e-06)
(0.189371 0.8224 -0.000178659)
(0.639586 3.13817 -0.000642246)
(0.230268 0.999677 -0.000161226)
(-0.0616299 -0.448086 0.000205147)
(0.176989 0.778187 -0.000125001)
(0.143623 0.6628 -0.000114944)
(0.177151 0.778906 -0.00014171)
(0.143554 0.662439 -0.000105592)
(0.0800621 0.293496 2.6359e-06)
(0.0762543 0.279531 4.97957e-06)
(-0.0339984 -0.249432 3.52409e-05)
(0.162082 0.802208 -0.000134171)
(0.0634065 0.33344 -5.36394e-05)
(0.0451867 0.163835 6.44547e-06)
(0.0407451 0.147721 5.01152e-06)
(1.39075 0.921648 -0.000166225)
(0.0293849 0.0276258 7.06338e-06)
(0.363068 -0.150649 -3.8718e-06)
(0.0297686 0.0279804 6.12778e-06)
(0.364367 -0.151126 -6.87178e-06)
(-0.0223368 -0.140885 6.96563e-05)
(-0.0247277 -0.155612 7.72706e-05)
(-0.0407286 -0.254157 0.000130096)
(-0.0956402 -0.769641 0.000337534)
(-0.0358727 -0.224251 0.000113364)
(0.183913 0.796652 -0.000415977)
(0.195577 0.847921 -0.000429136)
(0.101513 0.44428 -0.000133428)
(0.0759281 0.348519 -0.00010313)
(0.105003 0.459668 -0.000142697)
(0.0726297 0.333245 -9.33684e-05)
(0.0426694 0.194486 -6.23987e-06)
(0.0675298 0.294425 -3.56585e-05)
(0.0743666 0.324585 -5.69904e-05)
(0.0484902 0.221487 -2.63496e-05)
(0.057897 0.211815 -0.000151967)
(0.0562703 0.205726 -0.000146628)
(0.0616905 0.224989 -0.000132933)
(0.0578939 0.21124 -0.000136515)
(0.0133976 0.0683707 1.0913e-06)
(0.0670224 0.328767 -8.01602e-05)
(-0.0688806 -0.50046 0.000248161)
(0.0242381 0.115931 5.36928e-05)
(-0.00752744 -0.0424542 7.10243e-05)
(0.0312729 0.151031 2.65118e-05)
(0.0314274 0.113712 -8.71618e-05)
(0.0300643 0.108695 -8.29827e-05)
(0.0332738 0.11996 -7.31557e-05)
(0.0307262 0.110828 -7.52881e-05)
(1.32355 0.876278 -0.000398216)
(1.29111 0.85481 -0.00031023)
(0.130666 0.123092 -6.29247e-05)
(0.357732 -0.148526 4.72505e-05)
(0.368416 -0.152961 5.03732e-05)
(0.118346 0.111474 -6.07922e-05)
(0.476379 -0.197545 1.30971e-05)
(0.223782 0.210774 -7.33596e-05)
(0.209399 0.197294 -7.56072e-05)
(0.456352 -0.189346 2.75625e-05)
(-8.2412e-06 -0.0196304 4.83532e-06)
(6.49569e-05 -0.0141247 4.79896e-06)
(-0.0530587 -0.522299 0.000167197)
(-0.000158327 -0.0306511 1.293e-05)
(-7.88316e-05 -0.0248235 8.28512e-06)
(-0.0697469 -0.563766 0.00018535)
(-0.055931 -0.54986 0.000214645)
(-0.000271171 -0.0387891 1.78429e-05)
(-0.000210096 -0.0343785 1.49116e-05)
(-0.0749036 -0.604649 0.000240328)
(-0.075344 -0.608149 0.000242902)
(-0.000102387 -0.0261452 1.55852e-05)
(-0.0585492 -0.575008 0.000234867)
(-0.000164002 -0.0307812 1.63059e-05)
(-0.0813372 -0.655727 0.000274142)
(1.37576 0.911001 -0.000469977)
(1.37459 0.910212 -0.000461174)
(1.37262 0.908892 -0.000452094)
(1.37689 0.911733 -0.000460649)
(0.208291 0.903421 -0.00041381)
(0.520185 2.54958 -0.00113739)
(0.535043 2.62252 -0.00116157)
(0.187535 0.813316 -0.000400284)
(0.179301 0.776223 -0.000407734)
(0.236285 1.06635 -0.000525945)
(0.267095 1.26011 -0.000586415)
(0.441075 2.15977 -0.000974875)
(0.180765 0.782701 -0.000409403)
(0.243533 1.09948 -0.000535507)
(0.256524 1.20987 -0.000570224)
(0.433587 2.1229 -0.000969096)
(1.38851 0.919896 -0.000384105)
(1.3878 0.919464 -0.000333116)
(1.39231 0.922508 -0.000256758)
(1.38966 0.920704 -0.000325141)
(0.454645 2.69541 -0.00050711)
(0.447179 2.65043 -0.000565486)
(-0.0018492 -0.0147048 3.55939e-06)
(-0.067541 -0.546452 0.000105926)
(-0.00218124 -0.0167335 4.99806e-06)
(0.0204103 0.115231 -2.88992e-05)
(0.0208405 0.117738 -2.56393e-05)
(0.0213513 0.120697 -1.96998e-05)
(0.0210524 0.118969 -2.43521e-05)
(0.241002 1.04662 -0.000158566)
(0.202529 0.879445 -0.000177069)
(0.605235 2.96982 -0.000604719)
(-0.0559391 -0.371697 0.000177831)
(-0.0445183 -0.277497 0.000143063)
(-0.0650764 -0.472926 0.000221411)
(-0.0465081 -0.28975 0.000150442)
(-0.0605068 -0.401749 0.000196717)
(0.426522 3.64919 -0.000558864)
(0.435555 3.72572 -0.000438554)
(0.0837534 0.311314 -3.82283e-05)
(0.108107 0.443509 0.000515831)
(0.108157 0.443716 -0.000635962)
(0.083632 0.310856 -4.8815e-05)
(0.140187 0.646282 -0.000113663)
(0.175663 0.772244 -9.16081e-05)
(0.176642 0.776627 -0.000110928)
(0.143107 0.660232 -9.63126e-05)
(0.108107 0.443505 0.000494658)
(0.0834437 0.310145 -6.17276e-05)
(0.107984 0.442985 -0.00065424)
(0.0835729 0.310634 -5.26739e-05)
(0.0729941 1.09963 -0.000121186)
(-0.00313676 1.52704 -0.000173055)
(-0.00318197 1.54979 -0.000248803)
(0.0683875 1.03022 -0.000170466)
(-0.0717793 1.7566 -0.000302979)
(1.39346 0.923294 -0.00020638)
(-0.0700439 1.71457 -0.000356471)
(-0.0703569 1.7217 -0.000201957)
(-0.0719283 1.76016 -0.0002804)
(1.39318 0.923108 -0.000186695)
(-0.00316428 1.54222 -0.000266174)
(0.0647151 0.974854 -0.000220124)
(-0.00305301 1.49429 -0.000316034)
(0.0674503 1.01613 -0.000181565)
(0.315519 1.42799 -6.99704e-05)
(0.250022 1.08574 -0.000104757)
(0.612142 3.00394 -0.000242923)
(0.370586 1.75272 -0.000214161)
(0.336752 1.59281 -5.5439e-05)
(0.594276 2.91617 -0.000267965)
(0.250256 1.08666 -0.000121529)
(0.339892 1.53812 -0.000177178)
(0.0897388 0.352561 -1.44989e-05)
(0.0835047 0.328057 -2.0559e-05)
(0.0723008 0.26505 1.1302e-05)
(0.0750731 0.275218 6.56706e-06)
(0.0809104 0.317835 -2.31933e-05)
(0.667122 4.17285 -0.00063589)
(0.441526 2.61748 -0.000248759)
(0.697408 4.36399 -0.00042889)
(0.425969 2.84846 -0.000391509)
(0.427681 2.85916 -0.000278791)
(0.449982 2.66781 -0.000272201)
(-0.0319656 -0.235237 2.63349e-05)
(-0.0205922 -0.139371 2.10014e-05)
(-0.00153271 -0.0128697 2.44735e-06)
(-0.0196798 -0.133978 1.66041e-05)
(-0.00142691 -0.0123998 2.2798e-06)
(0.0627988 0.329728 -3.32371e-05)
(0.159968 0.790919 -8.14534e-05)
(0.162231 0.802639 -0.000107711)
(0.0475784 0.256332 -3.96838e-05)
(0.0216372 0.122253 -1.63626e-05)
(0.0477121 0.256552 -2.8205e-05)
(0.0217356 0.122656 -1.41139e-05)
(0.037646 0.136488 7.86798e-06)
(0.0398161 0.144363 5.86582e-06)
(0.0656425 0.239356 -0.000129633)
(0.0680988 0.248295 -0.000127124)
(0.0318829 0.111432 -6.54651e-05)
(0.0359684 0.129654 -7.13456e-05)
(0.0377887 0.132076 -6.21903e-05)
(0.0376561 0.135732 -7.00127e-05)
(0.275466 0.808608 -9.38764e-05)
(0.275447 0.808511 -7.49007e-05)
(0.286143 0.664735 -6.25341e-05)
(0.285946 0.664281 -6.42468e-05)
(-0.192257 1.78253 -0.000108685)
(-0.06343 1.55224 -0.000111179)
(1.38977 0.921382 -0.000220393)
(-0.879521 2.86102 -0.000253689)
(-0.0664881 1.62708 -0.000141727)
(-0.207121 1.91952 -0.000199264)
(0.0697079 0.255521 6.94393e-06)
(0.0686009 0.251536 1.44271e-06)
(0.0363028 0.131606 3.85171e-06)
(0.0319804 0.11241 5.99219e-06)
(0.0307541 0.108142 1.23174e-06)
(0.0358905 0.130162 1.3864e-06)
(0.427158 2.52786 -0.00112087)
(0.389992 2.30771 -0.00103894)
(-0.00144758 -0.0114188 1.74435e-05)
(-0.00418103 -0.0272398 2.57911e-05)
(-0.0288431 -0.18096 9.05784e-05)
(-0.0257978 -0.162202 8.04282e-05)
(-0.00887143 -0.0543843 4.01445e-05)
(-0.00541696 -0.0343918 2.92364e-05)
(1.35901 0.899845 -0.000431814)
(1.36819 0.905939 -0.000440983)
(1.37402 0.909816 -0.000451884)
(1.36864 0.906239 -0.000442004)
(-0.0224692 -0.133064 8.22992e-05)
(-0.016908 -0.100886 6.45096e-05)
(0.349523 2.06719 -0.000889218)
(0.377071 2.231 -0.00100042)
(-0.0942459 -0.758528 0.000331115)
(-0.0302231 -0.18946 9.48151e-05)
(-0.0341679 -0.213753 0.000107857)
(-0.01046 -0.0635777 4.47048e-05)
(-0.0149326 -0.0894562 5.85851e-05)
(0.196879 0.853602 -0.000416603)
(0.513186 2.51519 -0.00114086)
(0.188839 0.818892 -0.000402653)
(0.478504 2.34449 -0.0010818)
(0.282294 2.40271 -0.000991629)
(0.290531 2.47321 -0.00103184)
(0.0651058 0.266144 0.000259715)
(0.0528121 0.195754 -6.45729e-05)
(0.0555911 0.206095 -7.07851e-05)
(0.0612334 0.250221 -0.000391425)
(0.0965872 0.422568 -0.000120209)
(0.0641669 0.294074 -7.09729e-05)
(0.0922385 0.403398 -0.00010759)
(0.0681706 0.312603 -8.25537e-05)
(0.0588328 0.218159 -7.79164e-05)
(0.0565162 0.209538 -7.28906e-05)
(0.0698139 0.285509 0.000272768)
(-0.00230346 1.36762 -0.000530238)
(0.0573125 0.857825 -0.000338344)
(0.0585885 0.877022 -0.000345599)
(-0.00225247 1.34136 -0.000519062)
(-0.06382 1.57557 -0.000607567)
(1.35716 0.898602 -0.00042569)
(-0.0645183 1.59264 -0.0006179)
(-0.00232144 1.37662 -0.000534296)
(0.0600067 0.898388 -0.000355637)
(-0.00234982 1.38936 -0.000542421)
(0.0590066 0.883317 -0.000348329)
(-0.063399 1.56523 -0.000602716)
(1.35437 0.896751 -0.000423574)
(-0.0622342 1.53664 -0.000590043)
(0.315925 2.69011 -0.00109374)
(0.310167 2.64087 -0.00107647)
(0.0425385 0.157524 -4.18217e-05)
(0.0468025 0.173392 -5.1227e-05)
(0.0547999 0.223767 -0.000340942)
(0.0516158 0.191302 -6.21081e-05)
(0.0594427 0.242857 0.000243623)
(0.0482512 0.178782 -5.44651e-05)
(0.0809361 0.353562 -7.70633e-05)
(0.058841 0.269424 -5.6836e-05)
(0.0860922 0.3763 -9.1708e-05)
(0.0541703 0.247801 -4.30104e-05)
(-0.0573754 1.41725 -0.000540111)
(-0.0596211 1.47249 -0.000560911)
(1.3336 0.882971 -0.000407527)
(0.0519375 0.777018 -0.000307726)
(-0.00202922 1.22395 -0.000471224)
(-0.00213052 1.27876 -0.000491569)
(0.0542543 0.811821 -0.00032009)
(-0.00216113 1.2948 -0.000498256)
(0.0567644 0.849557 -0.000335047)
(0.0550449 0.823704 -0.000324603)
(-0.00222885 1.33007 -0.000514268)
(-0.0602811 1.48871 -0.000567842)
(1.33904 0.886574 -0.000410706)
(-0.0617654 1.52516 -0.000585167)
(0.075252 0.294794 -0.000181534)
(0.0754747 0.295528 -0.000181509)
(0.0556016 0.203093 -0.000141992)
(0.0558836 0.204265 -0.000145201)
(0.0754829 0.295882 -0.000181912)
(0.24052 1.13378 -0.000544381)
(0.404051 1.97734 -0.000937805)
(0.226029 1.01934 -0.000506878)
(0.175206 0.757908 -0.000406689)
(0.176255 0.762616 -0.000405967)
(0.233314 1.05279 -0.00052102)
(0.412262 2.01789 -0.000925389)
(0.252295 1.18979 -0.000564707)
(0.0768256 0.300574 -0.000178086)
(0.076439 0.29911 -0.000179272)
(0.0754803 0.295501 -0.000180902)
(0.0556496 0.20322 -0.000140717)
(0.057109 0.208417 -0.00013772)
(0.262649 1.74979 -0.000742493)
(0.41907 2.61413 -0.00112442)
(0.275768 1.6296 -0.00070295)
(0.282314 1.66842 -0.000717663)
(0.449418 2.80391 -0.00117851)
(0.439745 2.7435 -0.00116021)
(0.26927 1.79403 -0.000748502)
(-0.002302 -0.0152558 3.64882e-05)
(-0.0269014 -0.158709 9.62594e-05)
(0.050935 0.248826 -3.44784e-05)
(0.00546197 0.0263979 2.49972e-05)
(-0.0293053 -0.172617 0.000104379)
(-0.00982304 -0.0561456 6.01052e-05)
(-0.0659698 -0.437834 0.000228381)
(-0.0539127 -0.335405 0.000183568)
(-0.066206 -0.481059 0.000228614)
(-0.0521671 -0.324614 0.000173462)
(-0.0620609 -0.411983 0.000204934)
(0.460594 2.87384 -0.00120249)
(0.46991 2.93213 -0.00122098)
(0.292624 1.95016 -0.000800323)
(0.28668 1.91043 -0.000786163)
(-0.0214862 -0.119718 0.000104587)
(-0.0386665 -0.226834 0.000140623)
(0.0443585 0.21614 -1.48701e-05)
(0.00219404 0.0091101 3.50636e-05)
(0.0381931 0.185481 2.86602e-06)
(-0.0363065 -0.213137 0.000130045)
(-0.0128068 -0.0723712 6.99299e-05)
(0.0293155 0.10587 -7.91152e-05)
(0.0297209 0.107424 -8.18128e-05)
(0.0293207 0.10586 -7.81928e-05)
(0.0302025 0.108963 -7.60386e-05)
(0.118443 0.346782 -7.43819e-05)
(0.144222 0.422473 -0.000125078)
(0.192762 0.447146 -0.000166003)
(0.187462 0.434841 -0.000159065)
(0.160062 0.371231 -0.000124106)
(0.168225 0.390192 -0.000138377)
(0.15119 0.442938 -0.000138341)
(-0.603461 1.96551 -0.000703431)
(1.3184 0.872858 -0.000392023)
(-0.0559938 1.38339 -0.000524798)
(-0.168065 1.56341 -0.000587364)
(-0.576126 1.87666 -0.000731966)
(-0.50643 1.64904 -0.00049427)
(-0.524544 1.70838 -0.000616154)
(-0.145483 1.35406 -0.000503736)
(-0.0502111 1.2413 -0.000465199)
(1.30148 0.861623 -0.000360564)
(-0.558986 1.82096 -0.000656602)
(0.0872511 0.318202 -0.000111112)
(0.0803402 0.292978 -0.000119015)
(0.14433 0.135976 -6.51532e-05)
(0.397413 -0.165003 5.78809e-05)
(0.381999 -0.158601 5.41797e-05)
(0.158506 0.149344 -6.55889e-05)
(0.0540461 0.189028 -5.4716e-05)
(0.0503708 0.181628 -6.09649e-05)
(0.0458263 0.165217 -6.57976e-05)
(0.0405405 0.141702 -6.01468e-05)
(0.190339 0.179353 -7.14847e-05)
(0.41549 -0.172499 5.1415e-05)
(0.434043 -0.180165 4.60296e-05)
(0.17467 0.164586 -6.6475e-05)
(0.622687 3.05542 -0.000721106)
(0.24122 1.04729 -0.000204685)
(0.242223 1.05139 -0.000295034)
(0.627754 3.07931 -0.000872304)
(0.213214 0.925314 -0.00034542)
(0.602734 2.95571 -0.00114092)
(0.245479 1.06518 -0.000410189)
(0.586818 2.87798 -0.00107768)
(0.192745 0.836267 -0.000317878)
(0.605416 2.9684 -0.00122384)
(0.21004 0.911255 -0.000372598)
(0.618259 3.0313 -0.00114474)
(-0.06807 -0.550599 0.000128368)
(-0.034905 -0.255813 6.52701e-05)
(-0.0483051 -0.352062 0.000151919)
(-0.0603266 -0.438692 0.000199572)