/*--------------------------------*- C++ -*----------------------------------*\
| =========                 |                                                 |
| \\      /  F ield         | OpenFOAM: The Open Source CFD Toolbox           |
|  \\    /   O peration     | Version:  2306                                  |
|   \\  /    A nd           | Website:  www.openfoam.com                      |
|    \\/     M anipulation  |                                                 |
\*---------------------------------------------------------------------------*/
FoamFile
{
    version     2.0;
    format      ascii;
    arch        "LSB;label=32;scalar=64";
    class       volScalarField;
    location    "1.25";
    object      p;
}
// * * * * * * * * * * * * * * * * * * * * * * * * * * * * * * * * * * * * * //

dimensions      [0 2 -2 0 0 0 0];

internalField   nonuniform List<scalar> 
111542
(
59.7463
61.027
64.0886
69.1104
76.1806
85.5187
97.2942
111.552
127.82
144.705
159.692
168.82
168.076
156.218
136.197
113.589
92.2683
73.7369
58.2279
45.6844
35.7641
28.1449
22.4287
18.1028
14.8303
12.3305
10.3183
8.75593
7.58959
6.68968
5.97209
5.38007
4.92566
4.53852
4.16755
3.77167
3.29858
2.74456
2.01017
1.00619
58.6927
59.9345
62.9678
67.9354
75.0055
84.5008
96.8001
112.164
130.441
150.579
169.926
182.982
182.215
166.309
140.962
114.629
91.3268
71.7528
55.8079
43.222
33.5565
26.2604
20.808
16.8149
13.8319
11.5218
9.7101
8.31111
7.23518
6.38851
5.70674
5.14969
4.69274
4.29606
3.92038
3.52887
3.07926
2.52813
1.80663
0.859078
56.6052
57.7829
60.6824
65.4809
72.4548
82.117
95.1819
112.46
134.614
161.488
189.774
210.949
210.905
185.721
150.086
117.445
90.4132
68.7444
51.9086
39.1785
29.8057
23.1564
18.3954
14.9355
12.1327
9.85225
8.12582
6.86388
5.92689
5.21331
4.66277
4.23402
3.89263
3.60642
3.34109
3.06165
2.72503
2.27703
1.64514
0.750161
53.537
54.5928
57.211
61.6143
68.1884
77.6604
91.1776
110.435
137.823
176.558
211.258
253.473
258.754
217.887
166.263
126.53
93.9078
68.8692
50.4452
37.0484
23.4122
17.1925
14.7048
13.2925
11.3355
9.30786
7.68626
6.46147
5.50198
4.73298
4.11987
3.63293
3.24288
2.92001
2.63606
2.36065
2.05032
1.6455
1.05358
0.149147
49.5994
50.4537
52.5912
56.2491
61.8648
70.2798
82.934
102.242
132.21
176.632
253.093
338.571
361.36
253.013
169.542
122.234
83.2426
56.632
39.0667
27.7792
20.1385
6.07831
5.32974
5.9552
5.36539
4.57539
4.00713
3.57724
3.20632
2.88762
2.62585
2.41425
2.24313
2.09894
1.97042
1.84118
1.68072
1.43631
0.99156
0.0555809
44.9878
45.5533
46.9872
49.4845
53.4182
59.5182
69.1086
84.6333
110.838
165.186
258.376
452.251
615.342
240.816
170.065
114.025
67.0094
40.5251
25.012
15.6566
10.3822
12.3913
12.0066
7.75467
4.73855
3.28489
2.50273
1.93481
1.49644
1.18271
0.970204
0.827698
0.732217
0.668758
0.626281
0.593876
0.559255
0.512152
0.465357
0.56968
39.9904
40.1995
40.7452
41.7232
43.3126
45.8492
49.915
56.4935
67.277
106.435
181.788
410.477
1947.04
-429.989
201.46
80.1132
31.8493
15.9631
7.46903
-2.52533
-9.6579
15.8487
15.0247
9.27374
5.77926
4.33572
3.63422
3.12509
2.72877
2.44271
2.23969
2.08712
1.96568
1.86372
1.77491
1.69432
1.60926
1.51221
1.39758
1.29432
34.9826
34.8055
34.3822
33.6833
32.6393
31.0769
28.596
24.2581
15.6907
17.9371
1.06428
-160.389
-996.702
-1029.09
-311.152
-99.9211
-45.5956
-25.7923
-16.9186
-10.7442
-3.01098
-7.97927
-6.14963
-4.53699
-3.60568
-2.65541
-1.73794
-0.999188
-0.431411
0.0206984
0.390046
0.691067
0.934137
1.12724
1.27566
1.37909
1.42283
1.37511
1.16818
0.674315
30.3661
29.8301
28.4944
26.2265
22.7571
17.531
9.53168
-3.123
-24.0325
-47.0896
-120.043
-263.497
-471.761
-500.093
-317.337
-173.875
-100.009
-61.1266
-39.3178
-25.46
-15.448
-8.78142
-4.68445
-1.74899
0.023563
1.12057
1.89256
2.43863
2.80185
3.03327
3.17506
3.25295
3.28136
3.2677
3.21242
3.10888
2.93332
2.63639
2.12218
1.19957
26.5361
25.6968
23.6185
20.096
14.7488
6.85425
-4.78872
-22.141
-48.4632
-89.3183
-146.631
-218.925
-284.064
-292.765
-236.497
-164.573
-109.93
-74.6841
-51.7301
-35.7867
-24.4702
-16.9359
-11.8222
-8.15808
-5.55903
-3.70447
-2.31065
-1.22939
-0.391318
0.25657
0.760525
1.15415
1.4579
1.68258
1.82871
1.89057
1.84531
1.64976
1.24184
0.569734
23.8006
22.7536
20.1633
15.7997
9.24139
-0.234446
-13.7288
-32.7304
-59.1038
-94.7222
-139.602
-188.655
-227.385
-235.112
-205.682
-157.817
-114.009
-81.8314
-59.1107
-42.4973
-30.1192
-21.0302
-14.336
-9.4079
-5.80236
-3.17791
-1.25483
0.163473
1.20417
1.95801
2.49583
2.87053
3.1178
3.25799
3.29123
3.22874
3.04691
2.69814
2.10743
1.13902
22.3764
21.2342
18.3727
13.6131
6.46028
-3.71492
-17.929
-37.329
-63.0854
-95.5888
-133.414
-171.274
-199.329
-206.063
-187.22
-152.084
-115.179
-84.9919
-62.4138
-45.491
-32.6713
-23.0658
-15.9923
-10.8261
-7.10318
-4.4083
-2.44179
-0.994195
0.0768111
0.869099
1.45362
1.88143
2.18803
2.39825
2.45891
2.44589
2.3174
2.02205
1.50705
0.713281
59.2006
60.423
63.4037
68.2523
75.0714
84.0723
95.4564
109.226
124.916
141.232
155.741
164.588
163.829
152.349
132.957
110.997
90.269
72.1812
57.0164
44.7248
35.0451
27.5959
21.9604
17.7258
14.51
12.0083
10.0307
8.49561
7.32634
6.42824
5.7266
5.17069
4.7284
4.35459
4.00656
3.64445
3.22467
2.70028
1.99269
1.00292
58.1576
59.3552
62.2878
67.0839
73.9073
83.0722
94.951
109.793
127.457
146.955
165.724
178.467
177.588
162.112
137.519
111.969
89.2989
70.1864
54.5949
42.2937
32.8597
25.7144
20.3595
16.4406
13.5002
11.2038
9.40272
8.01272
6.94381
6.10989
5.44887
4.9187
4.48658
4.11614
3.77198
3.41761
3.01209
2.50326
1.82157
0.890539
56.0966
57.2324
60.0294
64.6595
71.3891
80.7157
93.3356
110.042
131.494
157.562
185.029
205.614
205.637
181.056
146.415
114.744
88.4083
67.2087
50.7306
38.3034
29.2033
22.6863
17.9874
14.5502
11.7541
9.48335
7.77373
6.53458
5.6242
4.94006
4.42146
4.02565
3.71692
3.46246
3.23108
2.98927
2.69718
2.29842
1.71289
0.831221
53.0696
54.0852
56.6065
60.8497
67.1881
76.3283
89.3911
108.04
134.634
172.37
207.536
249.074
254.137
213.565
163.06
124.297
92.2707
67.5917
49.4438
36.2847
22.5993
16.616
14.2779
12.8219
10.7621
8.68724
7.08106
5.90723
5.01369
4.31538
3.77189
3.34899
3.01643
2.74508
2.50983
2.2843
2.03196
1.69422
1.17216
0.303666
49.1881
50.0056
52.0578
55.5743
60.979
69.0916
81.3221
100.049
129.238
173.705
249.237
333.775
355.671
247.456
166.011
120.375
81.9606
55.5656
38.171
27.0528
19.9209
4.84449
4.64349
5.45134
4.85198
4.04447
3.49185
3.0971
2.76864
2.49436
2.27529
2.10137
1.96297
1.84816
1.74819
1.65381
1.5441
1.37101
1.01459
0.145289
44.6491
45.1814
46.548
48.9349
52.7044
58.5692
67.8307
82.9069
108.528
162.816
255.831
448.819
609.905
233.825
165.397
113.549
66.1355
39.5506
24.1449
14.9883
11.8017
9.74785
9.85097
5.90225
3.19704
2.06186
1.56829
1.23998
0.988888
0.813898
0.699194
0.622157
0.570584
0.537742
0.521881
0.522696
0.54019
0.575256
0.637044
0.785072
39.718
39.9139
40.4171
41.3265
42.819
45.2247
49.1236
55.5123
66.1369
105.272
180.854
411.862
1933.86
191.675
85.7267
31.9576
15.0637
6.98766
-2.22121
-8.29887
14.1719
13.7242
8.25954
4.98956
3.73801
3.15066
2.68408
2.28504
1.97041
1.72626
1.53037
1.37217
1.24533
1.14878
1.08238
1.04406
1.03325
1.05119
1.11275
34.7879
34.6121
34.1729
33.4522
32.3863
30.8106
28.3456
24.1041
15.8189
18.2014
2.08417
-155.065
-972.819
-1017.67
-306.225
-97.8934
-44.6557
-25.4759
-16.8908
-10.8286
-3.84202
-8.68262
-7.01362
-5.37605
-4.29853
-3.19056
-2.16316
-1.35736
-0.748444
-0.271921
0.110306
0.417795
0.665612
0.865191
1.02666
1.15528
1.24418
1.26617
1.14966
0.720019
30.2528
29.7209
28.3924
26.1477
22.7257
17.5891
9.75628
-2.59454
-22.9565
-45.8768
-117.239
-258.208
-463.416
-489.868
-311.613
-170.574
-98.1068
-60.1202
-38.8644
-25.3503
-15.5994
-9.2323
-5.33949
-2.41447
-0.547964
0.639377
1.46616
2.03716
2.40541
2.62887
2.75538
2.81589
2.82905
2.80611
2.75147
2.66284
2.52105
2.28086
1.84989
1.04473
26.4827
25.6536
23.6112
20.1481
14.8992
7.17154
-4.20327
-21.1252
-46.7586
-86.5282
-142.334
-212.852
-276.691
-285.108
-230.273
-160.371
-107.392
-73.256
-50.9979
-35.5164
-24.5162
-17.2087
-12.2259
-8.59402
-5.98246
-4.10366
-2.68425
-1.58139
-0.728734
-0.0732437
0.4334
0.827017
1.13046
1.35683
1.51043
1.588
1.57038
1.41816
1.07409
0.493629
23.7931
22.7664
20.2226
15.9394
9.51994
0.256678
-12.9144
-31.4363
-57.1119
-91.7703
-135.442
-183.196
-221.037
-228.811
-200.285
-153.921
-111.477
-80.2903
-58.2286
-42.0669
-30.0092
-21.1435
-14.5876
-9.74235
-6.18013
-3.57357
-1.65383
-0.233429
0.808894
1.56195
2.09705
2.46811
2.71204
2.85144
2.89498
2.84578
2.68618
2.37574
1.84935
0.999
22.3954
21.2645
18.4724
13.7865
6.80634
-3.14052
-17.0093
-35.9238
-60.9767
-92.6282
-129.464
-166.368
-193.808
-200.627
-182.541
-148.443
-112.641
-83.375
-61.4404
-44.9683
-32.4641
-23.082
-16.1612
-11.1079
-7.4337
-4.75948
-2.80076
-1.35353
-0.279873
0.515238
1.10159
1.52987
1.83445
2.03441
2.12915
2.12994
2.01746
1.7539
1.29727
0.621384
58.1484
59.2841
62.0671
66.5853
72.9338
81.3087
91.8991
104.695
119.264
134.423
147.893
156.083
155.35
144.57
126.347
105.666
86.0642
68.8649
54.3962
42.6551
33.4078
26.2583
20.811
16.721
13.6305
11.2359
9.35777
7.89883
6.77863
5.91663
5.24493
4.71336
4.28333
3.92019
3.58963
3.25532
2.87639
2.4018
1.76296
0.869513
57.1293
58.243
60.9748
65.4408
71.791
80.316
91.3619
105.158
121.581
139.724
157.242
169.015
168.243
153.685
130.555
106.511
85.0663
66.878
52.0079
40.2854
31.2947
24.4096
19.2198
15.4622
12.6805
10.5104
8.79631
7.45838
6.41629
5.59555
4.94126
4.41453
3.98291
3.61616
3.28497
2.9573
2.59519
2.14796
1.55025
0.733116
55.1192
56.1727
58.7716
63.0758
69.3304
77.9978
89.7291
105.272
125.262
149.614
175.343
194.844
194.703
171.413
138.833
109.064
84.1055
63.8823
48.1619
36.3608
27.7942
21.4755
16.8501
13.5441
10.9281
8.81265
7.20522
6.02612
5.14915
4.48149
3.96837
3.57157
3.25944
3.00539
2.78416
2.56939
2.3269
2.00513
1.52271
0.756046
52.1713
53.1081
55.4421
59.3746
65.2514
73.7326
85.8731
103.252
128.135
163.643
198.347
238.178
242.837
203.536
155.488
118.921
88.2632
64.4825
47.023
34.4149
20.9382
15.304
13.2869
11.9898
9.97025
7.8747
6.21416
4.97203
4.01187
3.25816
2.67335
2.22493
1.88332
1.6213
1.41748
1.25146
1.09545
0.900347
0.57591
-0.0250107
48.3959
49.1446
51.0317
54.2723
59.2612
66.7674
78.1262
95.6108
123.068
166.47
239.321
321.37
341.909
235.408
158.209
115.642
78.4576
52.7332
35.849
25.0786
18.3685
2.30205
3.01749
4.47389
4.04331
3.22181
2.6224
2.17594
1.79482
1.47119
1.20863
1.0012
0.844221
0.729519
0.655709
0.62262
0.626784
0.64103
0.566806
0.0597776
43.9803
44.469
45.7065
47.8764
51.3198
56.7089
65.2856
79.3806
103.639
156.752
248.165
438.21
594.569
218.551
157.676
110.778
64.4488
38.0384
22.6412
13.3154
14.1961
8.19069
7.67259
3.34942
0.248254
-1.24792
-1.98311
-2.44063
-2.73946
-2.90519
-2.97032
-2.97226
-2.92101
-2.82942
-2.69728
-2.51514
-2.26088
-1.8943
-1.32541
-0.276213
39.2103
39.3685
39.7896
40.5657
41.8642
44.0012
47.5396
53.4824
63.646
102.187
177.425
408.185
1914.52
186.023
88.3633
32.6267
15.508
6.39702
-3.8892
-11.0583
12.4828
11.5001
5.20547
1.55828
0.187466
-0.393517
-0.768471
-1.02253
-1.16797
-1.2375
-1.26311
-1.26148
-1.23089
-1.16656
-1.05426
-0.869731
-0.579179
-0.123842
0.577229
34.4321
34.2403
33.7724
33.0118
31.9011
30.2906
27.8417
23.7628
15.9984
18.7469
4.32132
-146.71
-950.934
-992.875
-293.959
-91.8199
-42.6129
-25.2758
-17.4948
-11.7875
-5.32459
-8.65085
-7.74947
-6.81506
-5.9559
-4.86226
-3.80145
-2.94363
-2.27231
-1.73167
-1.28629
-0.915787
-0.60563
-0.340046
-0.0993292
0.130923
0.361367
0.582269
0.733479
0.595902
30.0387
29.5103
28.2077
26.0103
22.6793
17.7151
10.2077
-1.53575
-20.7769
-42.7855
-110.583
-245.85
-444.126
-469.67
-297.325
-162.235
-93.7227
-58.0164
-38.048
-25.2631
-15.8634
-9.86006
-6.27279
-3.59927
-1.89382
-0.798929
-0.00923656
0.566234
0.967446
1.24214
1.4324
1.56444
1.65431
1.71242
1.74902
1.76745
1.75906
1.69025
1.47461
0.913805
26.3903
25.5874
23.6053
20.2582
15.2077
7.80083
-3.04512
-19.1042
-43.3365
-80.8513
-133.533
-200.389
-261.311
-269.675
-217.937
-152.118
-102.447
-70.4623
-49.5284
-34.9208
-24.5335
-17.6691
-12.7521
-9.16637
-6.6602
-4.87068
-3.49007
-2.38902
-1.51871
-0.835304
-0.293937
0.138648
0.485198
0.757352
0.965419
1.10973
1.17769
1.13678
0.930549
0.491441
23.7873
22.7964
20.3452
16.2244
10.0699
1.21877
-11.3186
-28.8877
-53.1712
-85.8943
-127.136
-172.35
-208.462
-216.236
-189.642
-146.153
-106.353
-77.0764
-56.2852
-41.0007
-29.5715
-21.1308
-14.7833
-10.0823
-6.66089
-4.17096
-2.32739
-0.94839
0.076492
0.829119
1.3769
1.77082
2.04634
2.22507
2.31978
2.33194
2.24863
2.03682
1.63684
0.938678
22.435
21.3474
18.6605
14.1574
7.47716
-2.01683
-15.2084
-33.1473
-56.8477
-86.7618
-121.587
-156.565
-182.763
-189.618
-172.957
-141.096
-107.526
-80.0202
-59.3205
-43.716
-31.8365
-22.8907
-16.2427
-11.3547
-7.79203
-5.20369
-3.30627
-1.89478
-0.836478
-0.0421229
0.553929
1.00001
1.32912
1.56013
1.70164
1.75292
1.70163
1.51945
1.16863
0.615808
56.6652
57.6843
60.1844
64.2411
69.9312
77.4206
86.8686
98.2538
111.182
124.602
136.485
143.637
142.885
133.113
116.624
97.8524
79.9245
64.0623
50.6508
39.7488
31.1509
24.4504
19.2532
15.28
12.269
9.95946
8.16818
6.78505
5.72708
4.91915
4.29773
3.81339
3.42813
3.11078
2.83159
2.55908
2.25687
1.87908
1.36577
0.643011
55.6817
56.6781
59.1272
63.1296
68.8115
76.4231
86.263
98.5248
113.09
129.158
144.699
154.917
154.222
141.084
120.22
98.452
78.8433
62.0633
48.3071
37.4814
29.1855
22.6775
17.6212
13.9123
11.2021
9.12631
7.50188
6.24061
5.26666
4.51015
3.91843
3.45219
3.07896
2.77101
2.50339
2.24975
1.97809
1.64405
1.18805
0.544674
53.7429
54.6809
57.0011
60.844
66.4212
74.1358
84.5593
98.351
116.076
137.681
160.542
178.024
177.66
156.613
127.399
100.551
77.6921
59.0014
44.4911
33.719
26.1085
19.9394
14.9657
11.5263
9.07774
7.20047
5.77845
4.73217
3.96062
3.38216
2.94514
2.61495
2.36516
2.17208
2.0181
1.88444
1.74709
1.56279
1.25144
0.659432
50.9042
51.7331
53.8025
57.2913
62.5021
70.0153
80.7668
96.1682
118.27
149.964
183.075
219.689
223.731
187.18
143.521
110.298
81.7796
59.5387
43.2855
31.6998
19.3372
13.8634
10.7976
9.02124
7.2272
5.53756
4.215
3.22941
2.47439
1.88514
1.42737
1.08001
0.820386
0.627428
0.4945
0.415174
0.38183
0.365434
0.286216
-0.0626644
47.278
47.9332
49.5858
52.429
56.8106
63.4108
73.4239
88.8997
113.38
154.202
221.566
298.591
317.483
216.272
146.957
108.066
72.475
47.9171
32.0223
22.0615
15.8829
-1.80618
-0.788285
1.2411
1.32142
0.857692
0.48396
0.182192
-0.0984359
-0.350435
-0.564772
-0.731932
-0.856599
-0.938734
-0.96497
-0.918206
-0.773159
-0.517259
-0.210149
-0.227082
43.05
43.4626
44.5158
46.3725
49.3343
53.9993
61.4823
73.9108
95.6288
145.775
233.203
416.953
565.894
196.334
149.75
107.045
60.9552
34.6451
19.4996
10.422
10.7647
-2.95729
0.0265583
-0.715123
-2.02311
-2.6868
-3.01158
-3.28523
-3.54487
-3.762
-3.92704
-4.05617
-4.13416
-4.16078
-4.11718
-3.96812
-3.65229
-3.0616
-2.01156
-0.239483
38.4903
38.6007
38.9042
39.4846
40.4898
42.2007
45.1281
50.2215
59.2763
95.9752
169.448
400.187
1873.78
175.784
89.6062
32.2175
12.7286
2.64384
-8.10366
-17.7474
13.4988
11.2832
4.32263
0.310586
-1.48647
-2.46895
-3.16948
-3.68852
-4.05316
-4.30076
-4.45661
-4.54799
-4.57853
-4.52462
-4.35767
-4.01927
-3.41012
-2.3646
-0.652841
33.933
33.7201
33.2094
32.3863
31.198
29.5079
27.0236
23.0679
15.8786
18.86
6.82331
-132.357
-899.374
-946.366
-268.795
-83.1383
-40.8361
-26.1333
-19.3707
-14.1273
-7.251
-8.64801
-7.54944
-6.71666
-5.98818
-5.07703
-4.18401
-3.46251
-2.91143
-2.48421
-2.14633
-1.86486
-1.64391
-1.45387
-1.25894
-1.02938
-0.728965
-0.325212
0.162834
0.46649
29.7418
29.2212
27.9503
25.8151
22.6032
17.8687
10.8018
-0.0973207
-17.7201
-38.0903
-100.165
-225.364
-411.105
-434.694
-272.627
-149.032
-87.4186
-55.3044
-37.2248
-25.5887
-17.0467
-11.9974
-7.41367
-4.15504
-2.4717
-1.57659
-0.96573
-0.532537
-0.250648
-0.0751158
0.0372543
0.113624
0.166427
0.211864
0.266056
0.340322
0.439925
0.554267
0.620519
0.46765
26.2642
25.4945
23.5994
20.4138
15.6352
8.6806
-1.41812
-16.2385
-38.4122
-72.5016
-120.322
-181.263
-237.142
-245.333
-198.892
-139.776
-95.2632
-66.4492
-47.4233
-34.1083
-24.7103
-18.5951
-13.2995
-9.39227
-6.89
-5.20783
-3.91704
-2.88325
-2.0701
-1.43662
-0.937485
-0.538388
-0.217745
0.0405373
0.252367
0.423546
0.550998
0.61564
0.57132
0.351933
23.7824
22.8416
20.5181
16.6248
10.8388
2.56692
-9.07469
-25.2795
-47.5401
-77.3982
-114.959
-156.209
-189.45
-197.078
-173.509
-134.562
-98.8225
-72.3662
-53.4092
-39.3955
-28.904
-21.112
-15
-10.3645
-7.02254
-4.63327
-2.88155
-1.57848
-0.616938
0.0828468
0.588126
0.950453
1.20565
1.37731
1.48213
1.52479
1.49785
1.37828
1.12089
0.654112
22.4937
21.4652
18.926
14.6836
8.41852
-0.440129
-12.6823
-29.2357
-50.9968
-78.3646
-110.18
-142.199
-166.393
-173.161
-158.619
-130.226
-100.052
-75.1248
-56.2037
-41.8462
-30.8724
-22.5621
-16.2859
-11.5599
-8.07714
-5.5569
-3.72182
-2.36114
-1.34296
-0.581226
-0.0119331
0.413263
0.727922
0.953423
1.10189
1.17536
1.16544
1.05293
0.81208
0.436538
54.863
55.7416
57.9003
61.3988
66.2896
72.6971
80.7359
90.3609
101.21
112.372
122.137
127.881
126.971
118.43
104.181
87.8858
72.1361
58.0228
45.9827
36.1506
28.3907
22.3492
17.6314
13.954
11.1257
8.95434
7.27674
5.9823
4.99014
4.23242
3.65251
3.19849
2.83603
2.54003
2.28664
2.05072
1.8022
1.50239
1.09913
0.51478
53.9214
54.7774
56.8849
60.325
65.1918
71.6796
80.0175
90.3361
102.494
115.779
128.453
136.658
135.844
124.549
106.729
87.9954
70.8374
55.9485
43.6633
33.9947
26.6471
20.9125
16.3862
12.9026
10.2735
8.24858
6.6644
5.43246
4.48129
3.74872
3.18975
2.75139
2.40119
2.11775
1.88335
1.67555
1.46915
1.23006
0.908278
0.427515
52.0684
52.8683
54.8508
58.1311
62.8749
69.4032
78.1694
89.6863
104.373
122.136
140.854
154.909
154.158
136.347
111.839
89.014
69.1199
52.6046
39.7435
30.3444
24.1985
19.0461
14.279
10.7789
8.37924
6.60743
5.25323
4.2329
3.46483
2.88036
2.42376
2.07436
1.81214
1.61256
1.46311
1.3539
1.27456
1.19789
1.05722
0.664104
49.3635
50.0611
51.8081
54.7524
59.1355
65.4247
74.3735
87.1119
105.277
131.206
161.128
192.023
194.989
163.295
126.425
97.7965
72.489
52.697
38.2896
28.351
19.5545
17.0818
11.7632
7.85695
5.2958
3.45491
2.12205
1.17318
0.505887
0.0240265
-0.333415
-0.591112
-0.767807
-0.888047
-0.950117
-0.940064
-0.841175
-0.643752
-0.372262
-0.204195
45.9186
46.4577
47.8238
50.176
53.7945
59.2297
67.4467
80.1078
100.117
136.172
193.294
260.064
275.965
186.505
130.468
95.4855
62.7168
40.5596
26.5755
18.4648
15.8375
8.93341
6.01403
4.11438
2.39775
0.984795
-0.0713594
-0.903917
-1.55657
-2.07416
-2.48878
-2.80441
-3.03083
-3.18268
-3.24611
-3.17538
-2.91613
-2.38268
-1.50447
-0.540866
41.9146
42.2355
43.0622
44.5284
46.8769
50.5888
56.5612
66.5288
84.096
128.232
206.541
374.497
511.328
166.152
150.624
96.5592
50.2748
25.635
12.3875
4.88477
-0.440628
-28.6747
-26.0591
-24.6306
-23.925
-22.9572
-21.9692
-21.1306
-20.4545
-19.8711
-19.3412
-18.8657
-18.4055
-17.9207
-17.3752
-16.7108
-15.8068
-14.4113
-11.9623
-7.058
37.61
37.6636
37.8216
38.1537
38.7765
39.9051
41.9436
45.6605
52.5674
84.9054
152.088
373.03
1803.27
252.556
75.6324
17.4263
-0.662302
-8.4846
-15.1289
-22.135
-2.43895
-4.51413
-9.40163
-11.9158
-12.83
-13.2014
-13.4017
-13.5032
-13.51
-13.44
-13.3286
-13.1442
-12.8936
-12.5563
-12.073
-11.3307
-10.0971
-7.93521
-4.17934
33.3172
33.0835
32.5197
31.6119
30.3087
28.4816
25.8707
21.8998
15.1193
17.6519
7.66766
-115.833
-818.258
-850.188
-231.135
-75.5966
-42.3389
-30.357
-24.1974
-19.0861
-14.1274
-22.7365
-17.9294
-13.7834
-11.5345
-9.95411
-8.69912
-7.75909
-7.07907
-6.57805
-6.19705
-5.88939
-5.63969
-5.41101
-5.16075
-4.83528
-4.36011
-3.61965
-2.4841
-0.993062
29.3768
28.8681
27.6297
25.5627
22.483
18.007
11.4451
1.5418
-14.1029
-32.181
-86.0496
-195.079
-358.229
-377.433
-236.008
-131.579
-79.9846
-52.4954
-36.6574
-26.651
-20.8113
-19.4739
-12.804
-7.62172
-5.11586
-3.8374
-2.97743
-2.36819
-1.96128
-1.69293
-1.50701
-1.37078
-1.26448
-1.15965
-1.03547
-0.868109
-0.629153
-0.291724
0.128833
0.437916
26.1072
25.3773
23.586
20.5899
16.1334
9.7187
0.52631
-12.763
-32.3296
-61.9271
-103.027
-155.225
-203.095
-210.928
-172.729
-123.572
-86.1315
-61.3807
-44.7079
-33.0127
-25.0435
-20.365
-15.0669
-10.8048
-8.05575
-6.20546
-4.785
-3.65442
-2.77275
-2.09193
-1.56117
-1.14046
-0.806067
-0.530712
-0.295495
-0.0852969
0.109373
0.286394
0.41253
0.387968
23.7741
22.8929
20.7209
17.0983
11.7536
4.18148
-6.36609
-20.8854
-40.6025
-66.7649
-99.4085
-135.101
-164.065
-171.28
-152.018
-119.469
-89.1785
-66.3106
-49.6141
-37.1561
-27.8568
-21.0225
-15.5164
-11.1009
-7.79954
-5.39907
-3.6216
-2.287
-1.29126
-0.556417
-0.015939
0.381645
0.672672
0.884105
1.0343
1.13281
1.17922
1.15856
1.03059
0.699272
22.563
21.604
19.2402
15.3075
9.53817
1.44673
-9.63481
-24.4808
-43.8208
-67.9482
-95.8342
-123.851
-145.185
-151.641
-139.835
-116.138
-90.452
-68.8239
-52.1171
-39.291
-29.4384
-21.9666
-16.2737
-11.858
-8.50562
-6.03036
-4.20081
-2.82527
-1.78153
-0.989655
-0.389279
0.066383
0.411098
0.668163
0.851778
0.967992
1.01301
0.97241
0.821292
0.526196
52.873
53.6003
55.3881
58.2782
62.2959
67.5175
74.0036
81.6748
90.1895
98.7763
106.068
110.089
108.839
101.609
89.9063
76.4783
63.3049
51.2904
40.868
32.2195
25.2781
19.8056
15.5357
12.2261
9.67136
7.68984
6.14444
4.94281
4.01465
3.30281
2.76535
2.34394
2.00701
1.73251
1.50366
1.30006
1.09602
0.863119
0.569747
0.187457
51.9768
52.6824
54.4185
57.2443
61.218
66.4683
73.1393
81.277
90.6885
100.716
109.9
115.602
114.351
105.12
90.9102
75.8265
61.6942
49.1425
38.5748
30.0572
23.351
18.1327
14.0756
10.9693
8.59451
6.74171
5.27939
4.12871
3.2218
2.50745
2.00854
1.61716
1.29428
1.03041
0.825033
0.657795
0.504583
0.345403
0.159056
-0.0475876
50.2179
50.8704
52.4851
55.1485
58.9742
64.1847
71.0873
79.9986
91.1074
104.157
117.483
126.868
125.352
111.322
92.4472
74.726
58.8549
45.2364
34.3312
25.991
19.6409
15.05
11.2367
8.3404
6.20422
4.57229
3.31809
2.38154
1.66931
1.14512
0.69925
0.371132
0.148697
0.00513125
-0.0887111
-0.132105
-0.127744
-0.0800222
-0.0125438
0.0147894
47.6593
48.2177
49.6127
51.9577
55.4222
60.3368
67.2223
76.8216
90.1341
108.388
132.921
154.809
155.968
131.361
103.103
80.6692
60.3093
44.025
31.913
23.2752
12.3289
9.69076
6.45249
3.74701
1.65881
0.029941
-1.22984
-2.19098
-2.85515
-3.32601
-3.66978
-3.89693
-4.02435
-4.08125
-4.06951
-3.961
-3.73047
-3.32774
-2.67373
-1.60022
44.4167
44.8285
45.8814
47.6912
50.4554
54.5651
60.6831
69.9212
84.1643
112.742
153.188
200.433
208.406
139.177
99.9228
73.3322
47.4041
29.6347
18.3074
11.8446
10.3962
-1.54632
-3.26947
-4.42896
-5.81714
-6.94668
-7.76154
-8.51442
-8.98223
-9.28146
-9.47308
-9.59287
-9.59649
-9.48899
-9.33249
-9.03237
-8.51044
-7.61973
-6.10751
-3.57041
40.6584
40.8797
41.4583
42.49
44.1455
46.7535
50.917
57.7718
69.6261
103.463
163.093
290.776
392.399
101.29
114.635
59.1571
21.7239
2.76638
-6.9523
-11.5222
-9.4139
-23.3931
-25.2835
-29.6287
-31.1339
-31.1519
-30.7424
-30.0689
-29.4466
-28.8147
-28.1606
-27.4631
-26.7781
-26.087
-25.2764
-24.301
-23.0197
-21.0829
-17.6682
-10.7304
36.6348
36.6242
36.6225
36.676
36.8583
37.2976
38.231
40.1001
43.7622
67.9431
119.156
301.299
1622.36
264.247
-13.9396
-57.9415
-66.808
-67.9502
-66.6172
-61.5223
-34.6417
-33.75
-36.1907
-36.6597
-35.9079
-34.8989
-33.8852
-32.9251
-31.9936
-31.0777
-30.1943
-29.3114
-28.3816
-27.4077
-26.2996
-24.9019
-22.841
-19.2497
-11.8729
32.6339
32.3752
31.7508
30.7426
29.2977
27.2872
24.4622
20.3174
13.701
14.6605
5.64131
-91.2574
-653.422
-646.142
-186.437
-78.4389
-54.0319
-43.2762
-36.753
-31.3009
-29.0093
-31.4449
-26.793
-22.6847
-20.2761
-18.4745
-17.0257
-15.8972
-15.0203
-14.322
-13.746
-13.2568
-12.8385
-12.4107
-11.9567
-11.4181
-10.6889
-9.57853
-7.73577
-4.45756
28.9685
28.4741
27.2657
25.2661
22.3218
18.1118
12.0759
3.24553
-10.0728
-25.4482
-68.4314
-151.87
-274.892
-290.392
-187.399
-110.71
-71.3178
-49.004
-35.4462
-26.8496
-24.1771
-19.1164
-14.9492
-11.685
-9.77727
-8.52199
-7.55309
-6.79354
-6.20515
-5.74335
-5.36908
-5.05428
-4.78442
-4.52597
-4.25495
-3.94184
-3.5415
-2.98935
-2.19583
-1.04285
25.9284
25.2412
23.5596
20.7649
16.6537
10.8227
2.62127
-8.96242
-25.5409
-49.8471
-82.7063
-123.242
-159.68
-167.109
-140.041
-103.58
-74.5519
-54.3715
-40.1647
-29.8882
-22.7284
-18.6153
-14.841
-11.685
-9.34509
-7.59198
-6.20725
-5.09795
-4.21728
-3.52002
-2.964
-2.51414
-2.1474
-1.83523
-1.55694
-1.29405
-1.03139
-0.755272
-0.459124
-0.13237
23.7605
22.9439
20.934
17.6025
12.7354
5.92605
-3.41894
-16.0659
-32.9111
-54.7976
-81.5775
-110.392
-133.784
-140.146
-126.173
-101.578
-77.7035
-58.9166
-44.7013
-33.8336
-25.5806
-19.499
-14.8096
-11.0941
-8.25598
-6.13515
-4.53718
-3.32068
-2.39379
-1.68892
-1.15113
-0.7382
-0.419122
-0.170033
0.0256789
0.17784
0.287886
0.348672
0.344034
0.262726
22.6356
21.7507
19.5761
15.9775
10.7452
3.49085
-6.31575
-19.2705
-35.8977
-56.334
-79.648
-102.873
-120.609
-126.465
-117.899
-99.5086
-79.0202
-61.1674
-46.9302
-35.744
-27.0138
-20.3371
-15.2831
-11.4126
-8.46603
-6.24836
-4.57613
-3.30209
-2.32526
-1.57554
-0.999754
-0.556222
-0.214202
0.047615
0.24317
0.379464
0.454071
0.456881
0.378523
0.243232
50.8404
51.4172
52.837
55.1213
58.2697
62.3122
67.2568
72.9925
79.1999
85.244
90.0878
92.3418
90.682
84.6994
75.481
64.9001
54.3527
44.5314
35.8223
28.4378
22.3902
17.5562
13.7813
10.9076
8.70814
6.98706
5.63108
4.57262
3.75534
3.12861
2.64973
2.27626
1.97991
1.74022
1.53901
1.35633
1.16753
0.943414
0.647513
0.236349
49.9917
50.5465
51.9146
54.1291
57.2133
61.2324
66.2474
72.2233
78.9216
85.7503
91.5671
94.5215
92.5889
85.2785
74.6526
63.2866
52.3753
42.3808
33.6919
26.4772
20.6357
15.9776
12.3885
9.76467
7.79694
6.2557
5.03634
4.0768
3.3226
2.73151
2.2758
1.91453
1.62343
1.38753
1.19489
1.03057
0.874678
0.703141
0.482134
0.167708
48.3299
48.8332
50.0847
52.1341
55.0451
58.9439
63.9924
70.3152
77.8809
86.2911
94.3133
99.0393
96.1819
85.291
71.7614
59.2063
47.6865
37.2864
28.5237
21.4841
15.859
11.5084
8.76621
6.83384
5.22261
3.91338
2.9249
2.20234
1.67343
1.286
0.995134
0.786467
0.643942
0.549293
0.490514
0.46575
0.470725
0.490473
0.482413
0.318868
45.9225
46.336
47.385
49.1351
51.6841
55.2287
60.0563
66.5231
75.0035
85.7525
97.2456
105.955
100.899
82.5715
65.5607
52.5472
40.6495
30.3382
22.1335
15.5535
9.08421
2.92256
2.90193
3.21602
2.54293
1.58497
0.745872
0.0689171
-0.459595
-0.871031
-1.18807
-1.41802
-1.56921
-1.65606
-1.67806
-1.61772
-1.45739
-1.17388
-0.762319
-0.304559
42.8926
43.1688
43.9103
45.1849
47.0949
49.8794
53.8929
59.6674
67.9389
87.3901
108.036
129.072
124.191
83.4429
60.8428
47.6147
31.8044
19.7575
11.72
6.33556
1.11398
-12.896
-10.5146
-7.58316
-6.31121
-5.72492
-5.35796
-5.13907
-4.99835
-4.9124
-4.86141
-4.82306
-4.77506
-4.70552
-4.58564
-4.36448
-3.97794
-3.32615
-2.30658
-0.977857
39.3677
39.4987
39.8296
40.4293
41.3919
42.8937
45.2344
48.9107
54.7684
75.6908
102.497
147.774
167.338
27.1585
22.6473
5.61382
-4.41901
-9.06909
-12.2028
-14.2423
-19.8433
-12.3037
-13.9521
-16.0083
-16.7036
-16.7984
-16.7218
-16.5611
-16.3689
-16.1402
-15.8708
-15.544
-15.1866
-14.7943
-14.3044
-13.6636
-12.7674
-11.3861
-9.08052
-5.10759
35.6385
35.5642
35.4015
35.1766
34.9172
34.6612
34.4644
34.3966
34.5145
47.9992
59.4427
129.73
171.058
-698.201
-134.011
-95.6508
-69.8317
-62.7608
-57.3979
-53.4081
-66.3707
-39.3037
-37.2217
-35.3548
-33.5779
-31.7718
-30.1418
-28.7272
-27.4932
-26.3942
-25.397
-24.4814
-23.6259
-22.7715
-21.8843
-20.9003
-19.7012
-18.001
-15.1703
-9.58792
31.9315
31.6498
30.9636
29.8536
28.2653
26.0634
22.9938
18.5779
11.8585
10.3463
-10.9249
-79.047
-301.423
-254.516
-107.909
-61.1587
-40.2482
-29.9076
-23.7511
-18.8109
-10.6325
4.82194
1.99334
-1.71441
-3.34908
-4.09707
-4.56465
-4.88943
-5.10879
-5.25062
-5.33613
-5.38507
-5.39002
-5.32503
-5.17402
-4.91298
-4.47457
-3.73398
-2.53237
-0.919693
28.5479
28.0656
26.8887
24.9557
22.1444
18.1929
12.6523
4.75455
-6.9228
-25.2694
-48.6937
-102.293
-172.687
-185.806
-130.264
-84.5236
-57.6412
-40.6374
-29.5169
-21.4982
-11.1108
-1.88932
-2.66451
-4.03827
-4.06815
-3.62699
-3.18872
-2.81815
-2.50385
-2.2406
-2.02225
-1.83714
-1.67694
-1.528
-1.35988
-1.15165
-0.879086
-0.509669
-0.0527846
0.306656
25.7424
25.0992
23.5231
20.9287
17.1617
11.9119
4.69593
-5.20362
-18.8101
-37.4359
-61.8487
-90.144
-114.759
-121.217
-105.663
-81.9877
-61.3598
-45.8839
-34.2819
-25.1764
-17.5573
-12.3103
-9.32901
-7.19561
-5.32604
-3.79581
-2.63906
-1.77948
-1.13635
-0.654411
-0.293193
-0.0201042
0.187181
0.351249
0.494858
0.629665
0.760263
0.877829
0.931709
0.757548
23.7428
22.9885
21.1417
18.101
13.7108
7.66361
-0.479026
-11.2526
-25.2119
-42.7185
-63.3691
-85.0662
-102.338
-107.958
-99.4857
-82.7736
-65.392
-50.7827
-39.1383
-29.8182
-22.3184
-16.479
-11.998
-8.69067
-6.21658
-4.34111
-2.92269
-1.8499
-1.03533
-0.415016
0.0575636
0.417734
0.691728
0.899477
1.05482
1.1645
1.22445
1.21501
1.0887
0.743749
22.706
21.8953
19.9085
16.6442
11.9501
5.53266
-2.99982
-14.0604
-27.9601
-44.6537
-63.2767
-81.5468
-95.4711
-100.61
-95.193
-82.1697
-66.8384
-52.7837
-41.0841
-31.5664
-23.8921
-17.8278
-13.1587
-9.6381
-6.96733
-4.91149
-3.32507
-2.10565
-1.17116
-0.456312
0.0890064
0.502998
0.81468
1.04454
1.20529
1.30252
1.33016
1.26936
1.08278
0.708105
48.9083
49.3468
50.4289
52.1614
54.5193
57.496
61.0587
65.0802
69.277
73.1514
75.9646
76.8097
74.9005
70.0656
63.0188
54.9296
46.7116
38.8841
31.7843
25.6403
20.5318
16.4181
13.1971
10.7181
8.78193
7.23446
5.99423
5.01055
4.23736
3.63092
3.15406
2.7748
2.46684
2.20843
1.98001
1.76098
1.52495
1.23979
0.864482
0.347147
48.1048
48.5219
49.5524
51.2127
53.4902
56.4013
59.943
64.0274
68.4066
72.5869
75.7471
76.752
74.5326
68.9677
61.2703
52.9147
44.6634
36.8724
29.8921
23.958
19.1005
15.2474
12.3083
10.0856
8.33801
6.92493
5.7849
4.87116
4.13777
3.54627
3.0679
2.6788
2.35779
2.08671
1.84935
1.62984
1.4056
1.14512
0.804086
0.325853
46.5353
46.9038
47.8205
49.3167
51.4038
54.1323
57.5546
61.6615
66.2917
70.9941
74.811
76.0883
72.9358
65.5068
56.5788
48.0842
40.0371
32.4015
25.6514
20.0662
15.6139
12.2692
10.03
8.28105
6.72259
5.40319
4.36967
3.58305
2.98366
2.52423
2.1711
1.89933
1.69121
1.53147
1.40693
1.3069
1.21535
1.10223
0.906803
0.499274
44.2705
44.5585
45.289
46.5002
48.2334
50.5715
53.6288
57.5003
62.1782
67.3656
72.06
73.786