/*--------------------------------*- C++ -*----------------------------------*\
| =========                 |                                                 |
| \\      /  F ield         | OpenFOAM: The Open Source CFD Toolbox           |
|  \\    /   O peration     | Version:  2306                                  |
|   \\  /    A nd           | Website:  www.openfoam.com                      |
|    \\/     M anipulation  |                                                 |
\*---------------------------------------------------------------------------*/
FoamFile
{
    version     2.0;
    format      ascii;
    arch        "LSB;label=32;scalar=64";
    class       surfaceScalarField;
    location    "1.25";
    object      phi;
}
// * * * * * * * * * * * * * * * * * * * * * * * * * * * * * * * * * * * * * //

dimensions      [0 3 -1 0 0 0 0];

oriented        oriented;

internalField   nonuniform List<scalar> 
338621
(
24.9952
0.0021155
0.00131229
24.9879
0.00466822
0.00271742
24.976
0.00754993
0.00432422
24.9591
0.0106213
0.00627939
24.9362
0.0139956
0.00889655
24.9038
0.0200878
0.0123417
24.8575
0.0296917
0.0167275
24.7949
0.0404397
0.0223565
24.7332
0.0324486
0.0294472
24.6901
0.00554987
0.0378802
24.6616
-0.0184378
0.047464
24.5871
0.0174089
0.05763
24.615
-0.0952769
0.0679342
24.745
-0.20684
0.0774298
24.7867
-0.126779
0.0855586
24.8193
-0.124338
0.0920877
24.8485
-0.126226
0.0972047
24.8721
-0.124994
0.10147
24.8917
-0.124571
0.104975
24.9181
-0.134368
0.107958
24.9474
-0.139606
0.110291
24.9693
-0.134275
0.112291
24.9859
-0.130559
0.114022
24.9992
-0.128711
0.115365
25.0104
-0.127678
0.116485
25.0197
-0.126777
0.117405
25.0279
-0.12629
0.118066
25.0351
-0.125634
0.118477
25.0413
-0.124954
0.118753
25.0469
-0.124509
0.11889
25.0521
-0.124063
0.118897
25.0569
-0.123647
0.11877
25.0615
-0.123213
0.118643
25.0658
-0.122784
0.118515
25.0698
-0.122403
0.118356
25.074
-0.122397
0.118205
25.0783
-0.122283
0.118021
25.0827
-0.122268
0.11788
25.0873
-0.122411
0.117733
-0.122982
0.117328
24.9952
0.00423551
0.00128399
24.9877
0.00949759
0.00262953
24.9754
0.0156484
0.00421782
24.9583
0.0215121
0.00615446
24.9354
0.0282186
0.00874662
24.9062
0.0372448
0.0120815
24.8709
0.0486018
0.0165111
24.8255
0.0637593
0.0222238
24.7612
0.0674436
0.0294982
24.6866
0.0420439
0.0383798
24.6435
-0.0237719
0.0488168
24.6297
-0.0282217
0.0599729
24.6676
-0.204505
0.0718382
24.7512
-0.372531
0.0825983
24.8315
-0.298163
0.0914581
24.9002
-0.291175
0.0983449
24.9529
-0.282533
0.103656
24.9954
-0.275446
0.107967
25.0405
-0.281137
0.111514
25.0741
-0.282419
0.114348
25.0938
-0.275989
0.116651
25.1074
-0.266343
0.118505
25.1162
-0.259488
0.120143
25.1228
-0.256814
0.121458
25.1276
-0.255031
0.122549
25.1313
-0.253862
0.123397
25.1336
-0.252667
0.124064
25.1356
-0.252152
0.124512
25.1375
-0.251688
0.1248
25.139
-0.25094
0.124951
25.1403
-0.250399
0.124987
25.1413
-0.249587
0.124936
25.1425
-0.249287
0.124851
25.1438
-0.248762
0.124741
25.1451
-0.248331
0.124614
25.1465
-0.248311
0.124521
25.1481
-0.248254
0.124371
25.15
-0.248444
0.124268
25.1526
-0.249134
0.124106
-0.249455
0.123717
24.9955
0.00605384
0.00121934
24.988
0.0144501
0.00250152
24.9763
0.0233634
0.0039861
24.9586
0.0333167
0.00591068
24.9345
0.0438954
0.0084147
24.9036
0.056494
0.011699
24.864
0.0721361
0.0161591
24.8152
0.0907417
0.0219832
24.7465
0.106587
0.0296565
24.6487
0.100534
0.0395025
24.5718
0.00573239
0.0516082
-0.00553713
0.00593441
-0.00436649
24.6678
-0.0380436
0.0655903
-0.0576893
-0.0369402
-0.05676
24.5594
-0.0101942
0.0789122
-0.0944361
0.0227279
-0.0926671
24.7316
-0.18117
0.0914958
-0.122923
-0.210818
-0.120955
24.8251
-0.128014
0.100897
-0.120694
-0.125626
-0.118005
24.8865
-0.117358
0.107814
-0.115466
-0.114545
-0.112945
24.9409
-0.113686
0.113053
-0.113942
-0.111459
-0.111094
25.0071
-0.116363
0.117299
-0.115364
-0.114085
-0.113183
25.0501
-0.112943
0.120769
-0.111598
-0.110834
-0.10966
25.0755
-0.109302
0.123407
-0.108315
-0.107291
-0.106355
25.0932
-0.419156
0.125447
25.1062
-0.406537
0.127099
25.1138
-0.395654
0.12863
25.1192
-0.392234
0.130013
25.1233
-0.390399
0.131229
25.1261
-0.388881
0.132192
25.1278
-0.387262
0.132897
25.1292
-0.386905
0.133366
25.1297
-0.385824
0.133626
25.1305
-0.385423
0.133716
25.1308
-0.384417
0.133669
25.1313
-0.383586
0.133529
25.1315
-0.382748
0.133284
25.1318
-0.382193
0.133112
25.1318
-0.38126
0.132861
25.1319
-0.381047
0.13267
25.1324
-0.381142
0.132429
25.1331
-0.381403
0.132227
25.134
-0.381972
0.131966
-0.382707
0.131505
24.9957
0.00818856
0.00112158
24.9892
0.0187141
0.00230859
24.9776
0.031258
0.00366412
24.961
0.0444533
0.00549335
24.9367
0.0603898
0.00783539
24.9025
0.0796844
0.0109928
24.8573
0.102127
0.0153178
24.7995
0.127509
0.0211301
24.7333
0.143786
0.0290646
6.14212
0.0370015
0.039846
0.054322
0.038161
0.0544569
6.16418
6.14148
6.16228
6.12452
0.0175043
0.00584268
-6.11138
6.09917
-0.0335427
0.00773299
-6.10298
6.12436
-0.0412338
0.00968283
-6.11649
6.14328
-0.219638
0.0117025
-6.16192
6.17615
-0.155423
0.0131904
-6.18953
6.20036
-0.142285
0.0140949
-6.2119
6.22641
-0.142979
0.0147698
-6.23861
6.24601
-0.139092
0.0153162
-6.252
6.25733
-0.134027
0.0157479
-6.26183
6.26585
-0.129443
0.0161112
25.1053
-0.142542
0.136323
-0.143389
-0.142434
-0.144421
-6.26943
-6.27418
-6.26991
-6.2745
25.1101
-0.549095
0.137758
25.1112
-0.535893
0.139106
25.1122
-0.533667
0.140424
25.1113
-0.531183
0.141726
25.1089
-0.52932
0.142839
25.1064
-0.528484
0.143693
25.103
-0.527804
0.144267
25.0991
-0.526487
0.144566
25.0948
-0.525709
0.144617
25.0904
-0.524457
0.144457
25.0856
-0.522984
0.144141
25.0805
-0.521303
0.14368
25.0753
-0.520279
0.143276
25.0701
-0.518776
0.142765
25.0645
-0.51773
0.142302
25.0588
-0.517209
0.141772
25.053
-0.516846
0.1412
25.0482
-0.517768
0.14056
-0.517992
0.139654
24.9974
0.00868992
0.00098928
24.9915
0.0224984
0.00204276
24.9819
0.0376474
0.00324157
24.9666
0.054872
0.00487382
24.9439
0.0761229
0.00696231
24.9107
0.103115
0.00978989
24.8611
0.138177
0.0136627
24.7872
0.182425
0.0190541
6.17175
0.232373
0.0264681
6.16441
6.1716
6.16442
6.1557
0.0490846
0.00396525
6.13036
0.00560788
-6.15829
0.0202306
0.0118782
0.0117157
0.0203281
-0.0418296
-6.07751
6.04315
0.0076867
-0.00192965
0.0042447
0.00395309
-0.00184517
0.0222674
-6.04255
6.06069
0.0100668
0.0293683
-0.0400096
-0.0401145
-0.0189554
0.0415244
-6.11294
6.13801
0.0128269
-0.0517699
-0.0665058
-0.104371
-0.0522282
0.236987
-6.1703
6.18229
0.0143253
-0.0505737
-0.0544018
-0.05373
-0.0509214
0.183312
-6.1942
6.20792
0.0149029
-0.0509821
-0.0501742
-0.0501465
-0.0509874
0.173655
-6.22181
6.23392
0.0152163
-0.0490697
-0.0489924
-0.0489568
-0.0491322
0.168802
-6.24382
6.25129
0.0154519
-0.0462938
-0.0462088
-0.0461045
-0.0464073
0.162074
-6.25785
6.26257
0.0157012
-0.0437088
-0.0439208
-0.0437874
-0.043848
0.154844
-6.26675
6.26898
0.0159676
-0.0415289
-0.0419473
-0.041815
-0.0416576
0.148758
-6.27222
6.27378
-0.160138
0.0160358
25.0514
-0.651281
0.1375
-6.27385
-6.26882
-6.27505
-6.26901
25.0233
-0.645675
0.13796
24.9931
-0.641477
0.137989
24.9627
-0.63866
0.137807
24.9339
-0.637967
0.137473
24.9065
-0.637954
0.136931
24.8803
-0.637746
0.136103
24.8561
-0.63721
0.134961
24.8329
-0.636034
0.133514
24.811
-0.634472
0.13183
24.7906
-0.632538
0.129995
24.7714
-0.630197
0.128074
24.7528
-0.627873
0.126251
24.7352
-0.625717
0.124464
24.7184
-0.623691
0.12277
24.7024
-0.622227
0.121104
24.6875
-0.621401
0.119391
24.674
-0.62181
0.117573
-0.624275
0.115474
24.9999
0.00726301
0.000824391
24.9966
0.0240834
0.00171727
24.9891
0.0424173
0.00272992
24.9774
0.0625459
0.00402951
24.9599
0.0879134
0.00575027
24.9329
0.122073
0.00802034
24.89
0.170088
0.0110675
24.8179
0.239263
0.0153383
6.17108
0.345945
0.0211053
6.17063
6.17107
6.17047
-0.0650026
6.14552
0.0874036
0.00316607
-0.0196092
-1.52773
1.52259
0.0241516
0.000596353
-0.0194883
-1.50441
1.49229
0.0308681
0.000740572
-1.46877
0.0520452
1.47866
-0.063061
0.0011247
-1.53014
0.084308
1.53877
-0.094304
0.0013655
-1.53672
0.0610049
-0.06458
0.00159869
1.5387
-1.54799
0.0589308
-0.0626986
0.00115367
1.5506
0.056092
-1.55663
1.55819
-0.0585486
0.000897775
0.0516215
-1.56139
1.56201
-0.0530953
0.00085835
0.0484904
-1.56277
1.56287
-0.0496261
0.00104076
0.0458844
-1.56218
1.56177
-0.0468381
0.00137082
-1.55634
0.169959
6.17265
-0.150346
0.00797159
-1.54082
-1.55794
-1.54513
23.8436
-0.745665
0.0690831
-6.10997
-5.80629
-6.10172
-5.80032
23.859
-0.728601
0.0675514
23.871
-0.719596
0.0661474
23.8817
-0.713939
0.0645147
23.8914
-0.710395
0.0627458
23.9003
-0.70772
0.0608488
23.909
-0.705208
0.0587991
23.9176
-0.70244
0.0566111
23.9265
-0.699292
0.0543403
23.9357
-0.695749
0.0520636
23.9452
-0.691882
0.0498537
23.9553
-0.687975
0.0477395
23.9657
-0.684063
0.0458086
23.9762
-0.680284
0.0439923
23.9873
-0.676971
0.0422507
23.9985
-0.674
0.0404956
24.01
-0.671494
0.0385938
24.0213
-0.669444
0.0364011
-0.667293
0.0339241
25.003
0.00339594
0.000657445
25.0035
0.022216
0.00133731
25.0006
0.0431967
0.00212293
24.9949
0.0652251
0.00304957
24.9861
0.0924977
0.00423689
24.9725
0.129878
0.00577334
24.9528
0.182113
0.00767201
24.9217
0.26026
0.0100902
6.21323
0.386219
0.0129286
6.22128
6.21295
6.22106
-0.105689
6.1979
0.119175
0.00184663
-0.0392149
-1.54209
1.53598
0.0450258
0.000308034
-0.0821301
-1.50677
1.48844
0.100254
0.000204072
0.00435575
-0.0746965
0.0748715
-0.00455959
2.88747e-05
-0.0214069
0.000449418
0.0209186
2.43738e-06
3.63885e-05
-0.199614
0.00911482
-0.0196751
-0.00252319
0.212698
-1.13539
0.0465299
-0.0677672
0.00102434
1.15561
0.0408848
-1.20079
1.21177
-0.0514657
-0.0004023
0.0409394
-1.24726
1.25943
-0.0515007
-0.00160867
0.0409383
-1.29289
1.30365
-0.0489587
-0.00273977
0.0426212
-1.33283
1.34302
-0.0491742
-0.00363571
-1.38767
0.171817
5.77267
-0.20829
-0.0117937
-1.48992
-1.36082
-1.48599
24.1039
-0.677308
-0.105645
-5.84217
-6.17192
-5.88188
-6.17062
24.1355
-0.653852
-0.106407
24.167
-0.643852
-0.107152
24.1977
-0.637066
-0.107569
24.2262
-0.631304
-0.107674
24.2524
-0.626519
-0.107351
24.2762
-0.622419
-0.106634
24.2979
-0.618583
-0.105488
24.3175
-0.614928
-0.104028
24.3355
-0.611383
-0.102344
24.3521
-0.607957
-0.100559
24.3677
-0.6048
-0.0987008
24.3824
-0.601892
-0.0969399
24.3967
-0.599264
-0.0952593
24.4104
-0.596874
-0.0937977
24.424
-0.594921
-0.0926523
24.4374
-0.593062
-0.0919018
24.4507
-0.591002
-0.0916912
-0.58787
-0.0921251
25.0046
-0.00144005
0.000458359
25.0098
0.0161082
0.000948211
25.0146
0.0369336
0.00146928
25.0184
0.0593763
0.00204633
25.0201
0.0881198
0.00265469
25.025
0.121661
0.00334931
25.0369
0.166249
0.00397451
25.0626
0.230192
0.00432537
6.27396
0.330858
0.00402963
6.28168
6.27426
6.28393
-0.111229
6.28171
0.103071
0.000398795
-0.0444093
-1.57785
1.57957
0.0426906
4.54136e-06
-0.0835887
-1.59821
1.61325
-0.000284397
0.0688305
-0.0252165
-1.71268
1.75082
-0.0017184
0.0548489
-0.0203561
-0.0253173
-0.0203812
0.0985247
-1.71168
1.68292
-0.00137231
-0.0683871
0.10156
-1.60993
-0.00131398
1.59938
-0.0896973
0.0773252
-1.58485
-0.00131976
1.58192
-0.0730768
0.0559353
-1.57727
1.57634
-0.0536528
-0.0013487
0.0565493
-1.57458
1.57278
-0.05335
-0.00139553
0.0509363
-1.57237
1.57171
-0.0488164
-0.00146585
0.0474593
-1.57075
1.57024
-0.045401
-0.00154526
-1.56776
0.176569
6.26554
-0.159085
-0.0132086
-1.56728
-1.56744
-1.56732
25.07
-0.548513
-0.122788
-6.26865
-6.2685
-6.27011
-6.26871
25.0704
-0.530718
-0.123531
25.0676
-0.516932
-0.12418
25.0644
-0.509092
-0.124774
25.0618
-0.503264
-0.125421
25.0599
-0.498571
-0.126005
25.0585
-0.494494
-0.126521
25.0573
-0.490559
-0.126828
25.0567
-0.487416
-0.126927
25.0564
-0.484224
-0.126812
25.056
-0.481087
-0.126559
25.056
-0.478679
-0.126059
25.056
-0.476326
-0.125548
25.0556
-0.473959
-0.124961
25.0556
-0.472391
-0.124484
25.0557
-0.470803
-0.124191
25.056
-0.469229
-0.124158
25.0568
-0.467317
-0.12449
-0.465183
-0.125129
25.0056
-0.00632486
0.000264336
25.0138
0.00731776
0.000568953
25.0265
0.0233448
0.000849376
25.0376
0.0472756
0.00107386
25.0526
0.0719102
0.00118975
25.0757
0.0974429
0.00109056
25.1132
0.128119
0.000605038
25.176
0.1681
-0.000730137
6.31984
0.230148
-0.00343133
6.31793
6.32409
6.3182
-0.0884121
6.33585
0.0731458
-0.000750468
-0.0330975
6.4121
0.0876716
-0.00175063
-0.0342747
-0.0332874
-0.0339446
-6.36341
-0.033191
6.51548
0.0757815
-0.00380478
-0.0258905
-0.0332115
-0.025968
-6.4692
-0.00709595
-6.54585
6.51204
-0.00531905
-0.0069645
0.0152509
-0.00751145
0.045433
0.0451085
-6.53425
6.51322
-0.121867
-0.0100151
0.0388604
0.0357535
0.033165
0.0547242
-6.44928
6.41202
-0.175827
-0.0121676
0.0552672
0.0571131
0.0581296
0.0560677
-6.37238
6.34056
-0.173985
-0.0134754
0.0547789
0.0550353
0.053391
0.0462966
-6.32274
6.31179
-0.155923
-0.0143333
0.0453637
0.0450963
0.0444625
0.0443246
-6.30327
6.29747
-0.155241
-0.0148664
0.0441047
0.0438398
0.043651
0.0413994
-6.293
6.28755
-0.14283
-0.0151501
0.0409144
0.0408613
0.0402595
0.0385669
-6.28315
6.27754
-0.131232
-0.0152877
0.0381137
0.0380183
0.037431
0.142974
-6.27576
6.27364
-0.125516
-0.0153425
25.0711
-0.409444
-0.127625
-6.27083
-6.27079
-6.27089
-6.27002
25.0621
-0.394
-0.127762
25.0575
-0.38431
-0.127956
25.0543
-0.377723
-0.128183
25.0523
-0.372987
-0.128323
25.0511
-0.369067
-0.128301
25.0506
-0.365898
-0.1281
25.0509
-0.36308
-0.127727
25.0512
-0.360556
-0.127199
25.0518
-0.358258
-0.126549
25.0525
-0.355942
-0.125849
25.0533
-0.354341
-0.12508
25.0537
-0.352431
-0.124286
25.0546
-0.351303
-0.123593
25.0553
-0.35003
-0.123036
25.0558
-0.348706
-0.122648
25.057
-0.347922
-0.122513
25.0594
-0.346954
-0.122708
-0.346179
-0.123271
25.0061
-0.0111673
0.000152407
25.0157
-0.00253348
0.000290345
25.0242
0.0144467
0.000347953
25.0404
0.030792
0.000305104
25.0666
0.0456766
4.34323e-06
25.0996
0.0651042
-0.000693986
25.1467
0.0830764
-0.00202446
25.2126
0.106602
-0.00446108
25.3208
0.1305
-0.00869433
25.4254
0.144705
-0.0157053
-0.0610073
-0.0567217
-0.0585196
-0.0573658
25.5735
0.13327
-0.0264904
-0.0606471
-0.064179
-0.0621265
-0.0680289
25.7084
0.056971
-0.0417042
-0.0422811
-0.0285199
-0.0466598
-0.0330262
25.5885
-0.152945
-0.059664
0.0205366
0.123228
0.018257
0.170028
25.4988
-0.233455
-0.0781925
0.0821328
0.115626
0.0971502
0.106009
25.4321
-0.24415
-0.093174
0.0817069
0.147114
0.029931
0.145016
25.3477
-0.348696
-0.103965
0.134121
0.137062
0.132004
0.133742
25.2645
-0.31909
-0.110855
0.128002
0.131684
0.12518
0.128408
25.1984
-0.329893
-0.115341
0.131227
0.128296
0.127597
0.12425
25.1548
-0.309677
-0.118285
0.121426
0.118405
0.117792
0.11404
25.1302
-0.291564
-0.120266
0.111122
0.111051
0.106277
0.108029
25.1099
-0.277962
-0.121629
0.106785
0.106227
0.104008
0.102857
25.0917
-0.26878
-0.122424
25.0806
-0.259972
-0.122918
25.0734
-0.253729
-0.123379
25.0683
-0.24879
-0.12385
25.0646
-0.245102
-0.12414
25.0624
-0.242547
-0.124305
25.0605
-0.239638
-0.124339
25.0594
-0.237748
-0.124247
25.0585
-0.235577
-0.124053
25.0581
-0.234088
-0.123774
25.0581
-0.232538
-0.123453
25.0578
-0.230888
-0.123128
25.058
-0.229891
-0.122753
25.0578
-0.228557
-0.122513
25.0577
-0.22762
-0.122352
25.0584
-0.227005
-0.122342
25.0594
-0.226434
-0.122533
25.0605
-0.225072
-0.122974
-0.224085
-0.123682
25.0064
-0.0157182
4.64861e-05
25.0091
-0.0053992
8.41527e-05
25.0165
0.00713614
4.62609e-06
25.0356
0.0118924
-0.00020788
25.0606
0.0214469
-0.00076893
25.0894
0.038068
-0.00185947
25.1368
0.0393038
-0.00370476
25.1976
0.0524764
-0.00671081
25.2763
0.0631206
-0.0115374
25.372
0.0675674
-0.0187781
25.4793
0.0546453
-0.0289958
25.5605
0.0177776
-0.0425421
25.5398
-0.0746515
-0.0580972
25.5275
-0.148079
-0.0736223
25.4064
-0.0366772
-0.0868429
25.325
-0.170493
-0.0970718
25.2755
-0.165636
-0.104045
25.2142
-0.159532
-0.109017
25.169
-0.152048
-0.112429
25.1365
-0.144174
-0.114881
25.1124
-0.137161
-0.116686
25.0935
-0.131958
-0.117905
25.08
-0.127633
-0.118812
25.0703
-0.124515
-0.119455
25.0635
-0.122022
-0.11994
25.0588
-0.120275
-0.120131
25.055
-0.118628
-0.120165
25.0529
-0.11745
-0.120041
25.0515
-0.116667
-0.119713
25.0507
-0.115494
-0.119285
25.0503
-0.114921
-0.118769
25.05
-0.113945
-0.118218
25.0502
-0.113541
-0.117629
25.0502
-0.112777
-0.117093
25.0508
-0.112486
-0.116654
25.0513
-0.111808
-0.116318
25.0521
-0.111689
-0.116127
25.0532
-0.111371
-0.116132
25.0554
-0.110891
-0.11639
-0.111389
-0.116969
24.9866
1.21012e-05
24.9812
4.05837e-05
24.9885
-0.000113634
25.0007
-0.000344322
25.0232
-0.00104601
25.0635
-0.00224497
25.1069
-0.00424825
25.1668
-0.00746718
25.2421
-0.012459
25.329
-0.0195898
25.4124
-0.0292287
25.4711
-0.0414772
25.4511
-0.0552583
25.3715
-0.0690518
25.4156
-0.0812101
25.336
-0.0912571
25.2686
-0.0983805
25.2124
-0.103368
25.1673
-0.106937
25.1327
-0.109563
25.1071
-0.111549
25.0882
-0.11299
25.0746
-0.114028
25.0648
-0.114709
25.058
-0.115219
25.0532
-0.115464
25.0501
-0.115529
25.0482
-0.115487
25.0467
-0.115192
25.046
-0.114832
25.0455
-0.114421
25.0455
-0.113931
25.0454
-0.113421
25.0456
-0.112978
25.0458
-0.112675
25.0465
-0.112464
25.0472
-0.112386
25.0483
-0.112492
25.0502
-0.112842
-0.11351
24.9961
0.00100736
0.00254873
24.9898
0.00374978
0.00521876
24.9795
0.00633752
0.00832887
24.964
0.00952618
0.0121925
24.9434
0.0124783
0.0171657
24.9148
0.0173979
0.0236977
24.8736
0.0259739
0.0322066
24.817
0.0363896
0.0431216
24.7618
0.0285997
0.0567499
24.7255
0.00176818
0.0733775
24.7
-0.0178883
0.0922315
24.6366
0.0100439
0.112644
24.6643
-0.0910646
0.133145
24.7816
-0.190478
0.152373
24.8141
-0.114216
0.16869
24.8381
-0.112512
0.181633
24.8607
-0.1166
0.191717
24.879
-0.116389
0.199813
24.8946
-0.116977
0.206401
24.9207
-0.12998
0.21182
24.9469
-0.132139
0.216183
24.9672
-0.127907
0.219831
24.9833
-0.125049
0.222888
24.9968
-0.123649
0.225417
25.0082
-0.122432
0.227464
25.0184
-0.121797
0.229054
25.0271
-0.120928
0.230216
25.0347
-0.12009
0.230983
25.0415
-0.119514
0.231442
25.0477
-0.118951
0.231665
25.053
-0.11815
0.231691
25.0576
-0.117378
0.231587
25.062
-0.117157
0.231382
25.0663
-0.116981
0.2312
25.07
-0.116369
0.230971
25.0738
-0.116397
0.230811
25.0775
-0.116261
0.230551
25.0814
-0.116308
0.230351
25.0858
-0.116728
0.229997
-0.117122
0.228958
24.9961
0.002118
0.00248549
24.9898
0.00757723
0.00509506
24.9789
0.0133339
0.0081502
24.9634
0.0191932
0.011969
24.9422
0.0255883
0.0169067
24.9153
0.0330885
0.0234351
24.883
0.0430896
0.0320082
24.8411
0.0577517
0.0431713
24.7788
0.0635263
0.0574283
24.7033
0.0413767
0.0751589
24.6598
-0.0204052
0.0959631
24.5968
0.0154421
0.118951
24.6315
-0.194412
0.142145
24.7636
-0.402206
0.163654
24.8447
-0.284009
0.181268
24.9128
-0.276451
0.194899
24.9627
-0.268053
0.205453
25.0023
-0.261703
0.213756
25.0466
-0.270352
0.220458
25.078
-0.272837
0.225781
25.096
-0.263692
0.230042
25.1087
-0.255665
0.233548
25.1171
-0.249859
0.236512
25.1234
-0.247525
0.238939
25.1287
-0.246034
0.240875
25.1323
-0.24444
0.242357
25.1349
-0.242945
0.243452
25.1374
-0.242327
0.244211
25.1393
-0.241283
0.2447
25.1406
-0.240275
0.24497
25.1419
-0.239563
0.245072
25.1433
-0.238909
0.245052
25.1441
-0.23809
0.245
25.1448
-0.237857
0.244895
25.1461
-0.237761
0.244781
25.1469
-0.237332
0.244655
25.1481
-0.237622
0.244495
25.1499
-0.238157
0.244278
25.1518
-0.238433
0.243952
-0.239374
0.242887
24.9961
0.0033497
0.00236028
24.9899
0.0114281
0.0048526
24.979
0.0203914
0.00778942
24.9629
0.0297287
0.0114869
24.9406
0.0401067
0.0163139
24.9112
0.0515367
0.0227714
24.8738
0.0654457
0.0314156
24.8279
0.0829869
0.0429551
24.7628
0.100475
0.0582159
24.6683
0.097941
0.077947
24.5898
0.00605664
0.102381
-0.00332847
0.00656288
-0.00126929
24.7222
-0.0361832
0.13006
-0.0563282
-0.034212
-0.0536083
24.5796
0.023983
0.157851
-0.0923995
0.0273071
-0.0882759
24.7427
-0.211776
0.183449
-0.121063
-0.207325
-0.115835
24.8342
-0.125709
0.202452
-0.118088
-0.120481
-0.112094
24.894
-0.114916
0.21631
-0.113278
-0.109431
-0.107046
24.9468
-0.112037
0.226923
-0.111509
-0.106153
-0.105317
25.011
-0.114507
0.235258
-0.113638
-0.10859
-0.107576
25.0527
-0.111541
0.241877
-0.110569
-0.105869
-0.105472
25.0783
-0.108692
0.246975
-0.107413
-0.103824
-0.102216
25.0964
-0.407366
0.250895
25.1085
-0.394869
0.254132
25.1162
-0.38577
0.256828
25.1216
-0.382716
0.25973
25.1256
-0.380693
0.261878
25.1283
-0.37861
0.263682
25.1303
-0.376486
0.264453
25.1311
-0.374835
0.26503
25.1315
-0.373285
0.265245
25.1323
-0.372584
0.26519
25.1322
-0.370726
0.264944
25.1322
-0.370018
0.26459
25.1328
-0.369367
0.263948
25.1328
-0.368503
0.263805
25.1326
-0.368178
0.263422
25.1329
-0.36798
0.263056
25.1332
-0.368171
0.262665
25.1337
-0.368599
0.262195
25.1349
-0.369313
0.261612
-0.370101
0.260314
24.9969
0.00434505
0.00217045
24.9909
0.0152841
0.00447846
24.9802
0.0275745
0.00721036
24.9642
0.0405455
0.0106736
24.9416
0.055382
0.0152422
24.909
0.0738129
0.0214309
24.8647
0.0952695
0.0299233
24.8073
0.120237
0.0415824
24.7399
0.13944
0.0576537
6.14377
0.037763
0.0797432
0.0533969
0.0380296
0.0537796
6.16355
6.14436
6.16341
-0.0115788
6.12642
0.0174482
0.0175693
-0.0154386
-6.11428
6.1022
-0.0319507
0.0233713
-0.0194522
-6.10597
6.09851
0.0215563
0.0294418
-0.0234802
-6.11378
6.14588
-0.255797
0.0354928
-0.026497
-6.16405
6.17812
-0.15324
0.0400216
-0.0284801
-6.19147
6.2024
-0.140376
0.0430094
-0.0299035
-6.21351
6.22789
-0.141806
0.0452441
-0.0310155
-6.24078
6.24807
-0.137856
0.047024
-0.0318998
-6.254
6.25934
-0.133409
0.0484037
-0.0325939
-6.26318
6.26727
-0.129713
0.0495151
25.1093
-0.143777
0.280604
-0.144308
-0.141314
-0.139188
-6.27117
-6.27535
-6.27074
-6.27509
25.1147
-0.546171
0.283637
25.1161
-0.533316
0.285225
25.1167
-0.530912
0.28797
25.1156
-0.527992
0.290132
25.1127
-0.524901
0.292029
25.1097
-0.522567
0.292781
25.106
-0.520098
0.293196
25.1019
-0.517684
0.293112
25.0971
-0.515874
0.292642
25.0927
-0.513707
0.2919
25.088
-0.512185
0.290998
25.083
-0.510471
0.289752
25.0781
-0.509361
0.289021
25.0731
-0.508345
0.287961
25.0682
-0.50777
0.287003
25.0628
-0.506894
0.285883
25.0576
-0.506815
0.284607
25.0535
-0.507663
0.283039
-0.507784
0.280529
24.9985
0.00385358
0.00191333
24.9935
0.0183592
0.00396123
24.9841
0.0338246
0.00638647
24.9696
0.0504737
0.00946678
24.9477
0.0707685
0.0135495
24.9158
0.0967439
0.0188678
24.8673
0.130644
0.0268794
24.795
0.174108
0.0377499
6.17408
0.224729
0.0532902
6.16683
6.17489
6.16722
-0.00787337
6.15889
0.0488255
0.0120015
-0.0112066
6.13313
0.017118
-6.16179
0.0200805
0.0113685
0.0201374
0.0112248
-0.0400877
-0.0154598
-6.08015
6.04654
0.0237348
-0.00173382
0.00359427
-0.00203297
0.00381759
0.0217553
-0.0204044
-6.04485
6.05848
0.0313302
0.0524235
-0.0402576
0.0518272
-0.0397685
-0.0487367
-0.025644
-6.09893
6.13989
0.0390583
-0.0509631
-0.128997
-0.0516645
-0.128382
0.305664
-0.028745
-6.17047
6.18181
0.0436686
-0.0500455
-0.0536171
-0.0506963
-0.0529462
0.181067
-0.0304095
-6.19545
6.2098
0.0463411
-0.0509052
-0.0506491
-0.0514257
-0.0501194
0.17275
-0.0314765
-6.22377
6.23583
0.0482626
-0.0492119
-0.0494425
-0.0494768
-0.0491417
0.168296
-0.0322758
-6.24565
6.25308
0.0497134
-0.046553
-0.0466007
-0.0467891
-0.0465593
0.161546
-0.0329401
-6.25982
6.26444
0.050883
-0.0444622
-0.0443918
-0.0443092
-0.0445222
0.155113
-0.033531
-6.26877
6.27102
0.0519252
-0.0426259
-0.0425059
-0.0421866
-0.0426993
0.149385
-6.27342
-0.0340205
6.27544
-0.165128
0.0533629
25.0577
-0.669662
0.299326
-6.27632
-6.26973
-6.27699
-6.27298
25.0272
-0.663592
0.298804
24.9957
-0.659193
0.297782
24.9647
-0.654762
0.295558
24.9358
-0.651153
0.292561
24.9086
-0.64742
0.289019
24.8835
-0.643242
0.284351
24.8602
-0.63898
0.279527
24.8381
-0.634768
0.274518
24.8176
-0.630876
0.269521
24.7983
-0.627438
0.264471
24.7801
-0.624396
0.260234
24.7626
-0.621612
0.256041
24.7459
-0.619442
0.252207
24.7297
-0.617445
0.248652
24.7146
-0.615831
0.245175
24.7004
-0.614735
0.241545
24.6874
-0.614686
0.237527
-0.616439
0.232541
25.0021
0.000283281
0.00163013
24.9998
0.0190107
0.00332193
24.9921
0.0388937
0.00533304
24.9801
0.0586568
0.00786606
24.9627
0.0827702
0.0111898
24.9369
0.115461
0.0151857
24.8949
0.161958
0.0219115
24.824
0.229896
0.0306084
6.17299
0.336143
0.0432915
6.17204
6.17338
6.17217
-0.00623859
-0.063684
6.14757
0.0856543
0.00972878
-0.00204047
-0.0191491
-1.52814
1.5229
0.0237197
0.00270973
-0.0029908
-0.0186233
-1.50448
1.49191
0.0303481
0.00384568
-0.0043497
-1.46941
0.0524596
1.47943
-0.063709
0.00556446
-0.00606598
-1.52897
0.153547
1.54041
-0.166595
0.0076482
-0.00697893
-1.53646
0.0600037
-0.0633117
1.53827
0.00847091
-1.54801
-0.00755788
0.0597955
-0.0640104
0.00876993
1.55101
-0.00786746
0.0568708
-1.55735
1.55896
-0.0594029
0.00878038
-0.00798977
0.0524119
-1.56231
1.56296
-0.0539757
0.00890426
-0.00795943
0.0495495
-1.5638
1.56389
-0.0509079
0.00922376
-0.00780571
0.0472216
-1.56314
1.56262
-0.0485927
0.00970255
-1.55526
-0.0269002
0.181622
6.15761
-0.177553
0.0496696
-1.53923
-1.55436
-1.53558
23.8476
-0.785494
0.160433
-6.09923
-5.79937
-6.11321
-5.81122
23.8577
-0.765521
0.159316
23.8662
-0.757794
0.156336
23.8748
-0.750032
0.151171
23.8837
-0.742371
0.145005
23.893
-0.734478
0.138609
23.9034
-0.726438
0.131616
23.9145
-0.718506
0.125029
23.9262
-0.710997
0.118846
23.9383
-0.704065
0.11321
23.9505
-0.697803
0.107961
23.9624
-0.692322
0.103816
23.9741
-0.687494
0.0999915
23.9853
-0.683275
0.096643
23.9961
-0.67958
0.0935669
24.0066
-0.676329
0.0905222
24.0167
-0.673459
0.0871501
24.0265
-0.670923
0.0828917
-0.66863
0.076673
25.0089
-0.000893198
0.00125473
25.0095
0.0171522
0.00258142
25.0059
0.0404273
0.0041055
24.999
0.0626663
0.00595725
24.989
0.0888221
0.00828806
24.9753
0.124126
0.0107994
24.9557
0.173993
0.0152213
24.9253
0.25018
0.0202925
6.21364
0.375887
0.0271449
6.22179
6.21375
6.22211
-0.00368965
-0.103645
6.19821
0.116958
0.00581656
-0.00111885
-0.0389321
-1.54198
1.53586
0.0446748
0.00150087
-0.00136371
-0.0816886
-1.50583
1.48732
0.0996457
0.00191686
-0.000161983
0.0046052
-0.0748609
0.0751235
-0.00488928
0.000182825
0.00747189
-0.235778
0.0186531
-0.0308962
-0.00265905
0.24321
-1.12373
0.0109794
0.050062
-0.0708132
-0.00460309
1.1381
0.00927474
0.0386839
-1.1733
1.18243
-0.0504316
-0.00667241
0.00816674
0.038638
-1.2176
1.23125
-0.0521688
-0.00827979
0.00718363
0.0392084
-1.27108
1.28437
-0.0503377
-0.00934273
0.006063
0.0425435
-1.32098
1.33364
-0.0513648
-0.00990135
-1.39036
0.0215796
0.209213
5.83564
-0.225682
-0.0429006
-1.49301
-1.41408
-1.50041
24.1281
-0.699893
-0.238299
-5.88884
-6.17042
-5.85071
-6.1711
24.1665
-0.674422
-0.235841
24.1979
-0.665275
-0.231078
24.2242
-0.657696
-0.226191
24.2457
-0.650364
-0.221196
24.2636
-0.643653
-0.216108
24.2793
-0.63766
-0.211057
24.2936
-0.632166
-0.206148
24.3072
-0.627182
-0.201434
24.3204
-0.622657
-0.196914
24.3334
-0.618763
-0.192602
24.3464
-0.615596
-0.188456
24.3596
-0.613017
-0.184566
24.3726
-0.610658
-0.180908
24.3854
-0.608616
-0.177591
24.398
-0.606804
-0.174764
24.4105
-0.605105
-0.172734
24.4227
-0.60297
-0.171864
-0.599265
-0.172683
25.008
-0.00571458
0.000885463
25.0148
0.00949993
0.00181606
25.0212
0.0327167
0.00281948
25.0247
0.0572449
0.00393572
25.0236
0.087352
0.00518132
25.0276
0.11718
0.00628144
25.0392
0.15852
0.00786844
25.0669
0.21779
0.00885356
6.27536
0.307396
0.00893162
6.28743
6.27682
6.29071
-0.000886268
-0.108514
6.28284
0.100477
0.0014115
-8.31865e-05
-0.0440416
-1.57771
1.57945
0.0422621
0.000116635
0.000571789
-0.0815583
-1.59995
1.61637
0.0651272
-0.000557938
0.00268976
-0.0266074
-1.71125
1.74906
0.0595905
-0.00139051
-0.0221001
-0.0275465
-0.0224282
0.00478419
0.108663
-1.71057
1.68032
-0.0779111
-0.00526761
0.106497
-1.61057
0.00585593
1.59928
-0.0939942
-0.00706701
0.00677296
0.0754898
-1.58363
-0.00815963
1.58127
-0.0717641
0.00722253
0.0548301
-1.57763
1.57605
-0.0517357
-0.00875254
0.00734076
0.0566067
-1.57508
1.57361
-0.0534745
-0.00901203
0.00735134
0.0510597
-1.57271
1.57204
-0.0486287
-0.00911572
0.00727977
0.0476379
-1.56922
1.56953
-0.046121
-0.00910614
-1.56966
0.0293242
0.184767
6.273
-0.160559
-0.0469359
-1.56982
-1.56969
-1.57044
25.0819
-0.537598
-0.267441
-6.2757
-6.26942
-6.27995
-6.27449
25.0821
-0.530285
-0.267857
25.0795
-0.519248
-0.267582
25.0768
-0.511987
-0.267759
25.0743
-0.505313
-0.267978
25.0727
-0.500046
-0.267985
25.0714
-0.495117
-0.267731
25.0703
-0.490712
-0.267203
25.0694
-0.486782
-0.266409
25.0684
-0.483072
-0.265379
25.0673
-0.480037
-0.264179
25.0665
-0.477749
-0.263105
25.0653
-0.475838
-0.261548
25.0637
-0.473738
-0.260301
25.0626
-0.472725
-0.259238
25.0616
-0.471437
-0.258571
25.0609
-0.470118
-0.258497
25.0608
-0.468106
-0.259196
-0.465784
-0.26057
25.0065
-0.00988413
0.000552539
25.0162
-0.000709768
0.00110881
25.0299
0.0182996
0.0016146
25.0377
0.0484079
0.00203684
25.0548
0.069216
0.00226279
25.0776
0.0932883
0.00209089
25.1148
0.120677
0.00115038
25.1794
0.153622
-0.00125214
6.32861
0.194906
-0.00638085
6.31742
6.33281
6.31588
-0.0853293
0.00139025
6.34677
0.0679259
-0.00215278
-0.0328298
0.00350533
6.41988
0.0878227
-0.00504852
-0.0309953
-0.0330588
-0.0301825
-6.37906
-0.0297187
0.0075463
6.49126
0.0828646
-0.0107424
-0.029075
-0.0289173
-0.0314923
-6.45175
-0.00986624
0.0133977
-6.53964
6.49886
-0.0560939
-0.0197467
0.0625272
-0.0112761
0.0617833
0.0346317
0.0203868
-6.49221
6.47421
-0.142263
-0.0301394
0.0512385
0.0337281
0.0503294
0.0581331
-6.45087
0.0257659
6.40715
-0.18167
-0.0381617
0.0572138
0.0616386
0.0607178
0.0559073
0.0288264
-6.36708
6.3394
-0.175747
-0.0429107
0.0538682
0.0548592
0.0528619
0.0455154
0.0306049
-6.3259
6.31917
-0.157233
-0.0457292
0.0448459
0.0446655
0.0441338
0.0442977
0.0315959
-6.31511
6.30729
-0.153286
-0.0473233
0.0448537
0.0435844
0.0441701
0.0436818
0.0319977
-6.2985
6.28941
-0.143603
-0.048092
0.0412605
0.0431252
0.0407386
0.0388775
0.0321236
-6.28179
6.27383
-0.127314
-0.0483904
0.0359612
0.0394417
0.0372494
0.139753
-6.27222
0.0322793
6.27235
-0.1236
-0.0485732
25.0726
-0.39184
-0.265979
-6.27074
-6.26913
-6.27115
-6.26894
25.065
-0.384859
-0.265569
25.0605
-0.377694
-0.265078
25.0572
-0.371896
-0.264931
25.0555
-0.367358
-0.26457
25.0543
-0.363191
-0.263901
25.054
-0.359931
-0.26296
25.0544
-0.357013
-0.261794
25.0548
-0.353915
-0.260464
25.0558
-0.351625
-0.259035
25.0566
-0.349148
-0.25755
25.0576