/*--------------------------------*- C++ -*----------------------------------*\
| =========                 |                                                 |
| \\      /  F ield         | OpenFOAM: The Open Source CFD Toolbox           |
|  \\    /   O peration     | Version:  2306                                  |
|   \\  /    A nd           | Website:  www.openfoam.com                      |
|    \\/     M anipulation  |                                                 |
\*---------------------------------------------------------------------------*/
FoamFile
{
    version     2.0;
    format      ascii;
    arch        "LSB;label=32;scalar=64";
    class       volVectorField;
    location    "1.25";
    object      U;
}
// * * * * * * * * * * * * * * * * * * * * * * * * * * * * * * * * * * * * * //

dimensions      [0 1 -1 0 0 0 0];

internalField   nonuniform List<vector> 
111542
(
(99.9935 0.00535271 0.00263242)
(99.9716 0.0109923 0.00547621)
(99.931 0.0168597 0.0086521)
(99.8702 0.0230733 0.0126267)
(99.7877 0.0293481 0.0177925)
(99.6815 0.0348843 0.0246113)
(99.5506 0.0378062 0.0333664)
(99.3972 0.0351478 0.044573)
(99.2305 0.0223042 0.0587529)
(99.0704 -0.00707667 0.0759315)
(98.9496 -0.0586658 0.0956034)
(98.9087 -0.130127 0.116752)
(98.9739 -0.203409 0.138177)
(99.1369 -0.259029 0.157895)
(99.354 -0.286461 0.174551)
(99.5772 -0.295213 0.188134)
(99.779 -0.294037 0.199003)
(99.9505 -0.287569 0.207942)
(100.091 -0.278915 0.215411)
(100.201 -0.270279 0.221776)
(100.286 -0.263048 0.226974)
(100.349 -0.257351 0.231243)
(100.396 -0.25289 0.23494)
(100.43 -0.249983 0.237954)
(100.455 -0.248359 0.240423)
(100.474 -0.247463 0.242615)
(100.489 -0.247314 0.244341)
(100.501 -0.247705 0.245638)
(100.511 -0.248275 0.246673)
(100.519 -0.248865 0.247456)
(100.526 -0.249427 0.247964)
(100.533 -0.250003 0.24816)
(100.539 -0.250457 0.248233)
(100.545 -0.250806 0.248249)
(100.551 -0.251125 0.248229)
(100.558 -0.25151 0.248173)
(100.566 -0.252093 0.248026)
(100.574 -0.252802 0.247928)
(100.584 -0.25371 0.247896)
(100.6 -0.255055 0.247971)
(99.9937 0.0159535 0.00258182)
(99.9722 0.0326931 0.00530968)
(99.9321 0.0504959 0.00847469)
(99.8717 0.0696364 0.0124349)
(99.7885 0.0894374 0.0175719)
(99.679 0.107749 0.0243359)
(99.5401 0.119611 0.0331984)
(99.3711 0.116215 0.0447105)
(99.178 0.0830288 0.0593974)
(98.9794 -0.00080909 0.0774878)
(98.8164 -0.15248 0.0987314)
(98.7547 -0.36565 0.121505)
(98.8388 -0.588038 0.144854)
(99.0476 -0.748179 0.166462)
(99.3097 -0.827934 0.184396)
(99.5614 -0.856896 0.198476)
(99.7784 -0.856588 0.209561)
(99.9574 -0.840121 0.218578)
(100.1 -0.817069 0.226046)
(100.21 -0.793187 0.23221)
(100.291 -0.772082 0.237222)
(100.351 -0.755751 0.241381)
(100.394 -0.74415 0.244899)
(100.425 -0.736804 0.247886)
(100.447 -0.731562 0.250498)
(100.464 -0.726997 0.25286)
(100.477 -0.723274 0.254957)
(100.487 -0.720375 0.256763)
(100.496 -0.717905 0.25827)
(100.503 -0.715667 0.259455)
(100.51 -0.713647 0.260307)
(100.516 -0.711934 0.260851)
(100.522 -0.710431 0.261168)
(100.528 -0.709224 0.261328)
(100.534 -0.708487 0.261381)
(100.541 -0.708418 0.261364)
(100.547 -0.709232 0.261294)
(100.555 -0.710874 0.261207)
(100.565 -0.713395 0.261122)
(100.579 -0.716847 0.26114)
(99.994 0.0261727 0.0024561)
(99.9736 0.0537046 0.00505538)
(99.935 0.0837075 0.00810932)
(99.8759 0.116873 0.0119509)
(99.7925 0.152791 0.0169663)
(99.6785 0.18902 0.0236411)
(99.5262 0.21917 0.0325536)
(99.3282 0.229599 0.0443886)
(99.0816 0.193792 0.0599083)
(98.8036 0.0636477 0.0797938)
(98.5529 -0.269095 0.104415)
(98.4415 -0.729224 0.132314)
(98.5645 -1.14467 0.158568)
(98.8682 -1.38124 0.18286)
(99.2115 -1.47736 0.202149)
(99.5119 -1.50542 0.216415)
(99.7571 -1.48938 0.227245)
(99.9505 -1.45203 0.23592)
(100.098 -1.40851 0.242994)
(100.207 -1.36575 0.248654)
(100.284 -1.32895 0.253001)
(100.337 -1.29707 0.25657)
(100.374 -1.2796 0.259743)
(100.4 -1.27465 0.262828)
(100.42 -1.27425 0.26597)
(100.435 -1.27445 0.269131)
(100.446 -1.27459 0.272186)
(100.454 -1.2745 0.274982)
(100.46 -1.27384 0.277383)
(100.464 -1.2725 0.279295)
(100.468 -1.27059 0.280682)
(100.471 -1.26829 0.281571)
(100.474 -1.26582 0.282039)
(100.476 -1.26344 0.282199)
(100.479 -1.26148 0.282152)
(100.481 -1.26026 0.281987)
(100.483 -1.26011 0.281756)
(100.487 -1.26119 0.28149)
(100.491 -1.26355 0.281224)
(100.499 -1.26679 0.281114)
(99.9946 0.0355428 0.00226119)
(99.9762 0.0732597 0.00466696)
(99.941 0.115294 0.0075102)
(99.886 0.16346 0.0111092)
(99.8056 0.218752 0.0158462)
(99.6904 0.280484 0.0222226)
(99.526 0.344311 0.0308903)
(99.2918 0.397631 0.0426762)
(98.9589 0.41085 0.0586575)
(98.4633 0.210547 0.0803056)
(98.2079 0.0317905 0.0871733)
(97.8634 -0.621742 0.10315)
(97.9292 -1.41975 0.117361)
(98.4052 -1.92964 0.129791)
(98.9017 -2.07867 0.141486)
(99.293 -2.11226 0.148563)
(99.612 -2.07681 0.152785)
(99.8546 -2.00614 0.155693)
(100.032 -1.92916 0.158015)
(100.162 -1.86057 0.160013)
(100.322 -1.92646 0.26701)
(100.355 -1.86094 0.27037)
(100.361 -1.81677 0.273249)
(100.362 -1.79362 0.276994)
(100.364 -1.78127 0.281935)
(100.363 -1.77541 0.287573)
(100.358 -1.77378 0.293252)
(100.348 -1.77431 0.298431)
(100.337 -1.77546 0.302732)
(100.323 -1.77643 0.305941)
(100.308 -1.77689 0.308008)
(100.292 -1.77684 0.309022)
(100.275 -1.77645 0.309164)
(100.256 -1.77603 0.308659)
(100.237 -1.77593 0.307725)
(100.217 -1.77662 0.306539)
(100.196 -1.77853 0.305196)
(100.175 -1.78205 0.303735)
(100.155 -1.78733 0.302169)
(100.131 -1.7934 0.300654)
(99.9957 0.0433488 0.00199413)
(99.9806 0.0897961 0.004129)
(99.9516 0.142749 0.00665493)
(99.9052 0.205718 0.00985306)
(99.835 0.28225 0.0140714)
(99.7294 0.375835 0.0197742)
(99.5691 0.489092 0.027598)
(99.3215 0.62058 0.0383781)
(98.882 0.756912 0.0532472)
(98.5402 0.763567 0.058606)
(97.7319 0.374401 0.0721945)
(96.9326 -0.689352 0.089623)
(97.0302 -2.33657 0.104298)
(98.151 -2.93373 0.11692)
(98.8615 -2.96695 0.130741)
(99.327 -2.93235 0.13455)
(99.695 -2.81596 0.134109)
(99.9436 -2.67839 0.133498)
(100.107 -2.5508 0.134119)
(100.209 -2.44785 0.136061)
(100.273 -2.38919 0.137022)
(100.191 -2.53456 0.250531)
(100.057 -2.52756 0.254867)
(99.9282 -2.50983 0.259461)
(99.8114 -2.48861 0.265609)
(99.7 -2.47066 0.272935)
(99.5925 -2.4561 0.28049)
(99.4903 -2.44319 0.287307)
(99.3936 -2.43079 0.292618)
(99.3026 -2.41847 0.295963)
(99.2167 -2.4061 0.297208)
(99.1357 -2.39377 0.296509)
(99.059 -2.3817 0.294208)
(98.9863 -2.37024 0.290723)
(98.9169 -2.3598 0.286464)
(98.8505 -2.35086 0.281747)
(98.7869 -2.344 0.276741)
(98.7265 -2.33996 0.271492)
(98.671 -2.33996 0.265963)
(98.6147 -2.34656 0.260245)
(99.9971 0.0486913 0.00165876)
(99.9871 0.101309 0.00345017)
(99.9674 0.162515 0.00555276)
(99.9352 0.23764 0.00818159)
(99.885 0.333266 0.0116002)
(99.8064 0.458448 0.0161579)
(99.6802 0.626595 0.022329)
(99.4699 0.857776 0.0307154)
(99.0523 1.18323 0.0420442)
(98.6455 1.34394 0.0465315)
(97.6956 1.48394 0.0447426)
(95.595 0.714897 0.0408729)
(94.4042 -3.42484 0.0543867)
(98.2091 -4.70464 0.0478451)
(98.7071 -3.89666 0.0492531)
(99.2829 -3.81388 0.0290596)
(99.6939 -3.57644 0.0316827)
(99.8758 -3.32539 0.0462067)
(99.9159 -3.12494 0.0650396)
(99.8497 -2.95561 0.0776682)
(98.8645 -2.66332 0.0899545)
(95.231 -2.43386 0.0977079)
(95.2946 -2.5085 0.107447)
(95.37 -2.55316 0.114187)
(95.4287 -2.58471 0.118591)
(95.4742 -2.61234 0.120765)
(95.5145 -2.63627 0.120771)
(95.5532 -2.65491 0.118717)
(95.5914 -2.66758 0.114808)
(95.6299 -2.67447 0.109355)
(95.6691 -2.67631 0.102734)
(95.7095 -2.67414 0.0953354)
(95.7511 -2.66916 0.087494)
(95.794 -2.66258 0.0794706)
(95.8381 -2.65546 0.071425)
(95.8833 -2.64873 0.0634027)
(95.9296 -2.64317 0.0553386)
(95.9769 -2.63954 0.0470726)
(96.0241 -2.639 0.0384419)
(96.0778 -2.64414 0.0297628)
(99.9989 0.0506835 0.00132161)
(99.9951 0.105791 0.00269674)
(99.9875 0.170821 0.0042797)
(99.9747 0.252353 0.00619594)
(99.9541 0.359141 0.00857675)
(99.9208 0.504501 0.0115778)
(99.8666 0.710201 0.0153537)
(99.777 1.0145 0.0199702)
(99.6043 1.49043 0.0252291)
(99.3377 1.88859 0.0273731)
(98.622 2.8209 0.0242585)
(95.5011 5.82017 0.0153078)
(77.1157 -4.22379 0.0313101)
(102.757 -10.29 0.0224985)
(51.19 -2.77839 -0.906106)
(72.6247 -3.51593 -0.064288)
(76.766 -2.85085 -0.0748198)
(80.0996 -2.68537 -0.107576)
(82.9752 -2.70105 -0.116331)
(85.5174 -2.83392 -0.11087)
(91.9372 -3.41299 -0.155468)
(96.2713 -3.32211 -0.178433)
(96.4107 -3.20587 -0.185315)
(96.5678 -3.12311 -0.194895)
(96.7037 -3.06281 -0.206167)
(96.8229 -3.01562 -0.218)
(96.9324 -2.97663 -0.229053)
(97.0335 -2.94288 -0.238288)
(97.1259 -2.91237 -0.245165)
(97.2097 -2.88391 -0.249582)
(97.2859 -2.85693 -0.251759)
(97.356 -2.83134 -0.252123)
(97.421 -2.80729 -0.251197)
(97.4823 -2.785 -0.249502)
(97.5407 -2.76467 -0.247512)
(97.5973 -2.7464 -0.245621)
(97.6527 -2.73008 -0.244178)
(97.7074 -2.71541 -0.243477)
(97.7615 -2.70152 -0.243781)
(97.8278 -2.68606 -0.245239)
(100.001 0.0487613 0.000976234)
(100.004 0.101927 0.0019433)
(100.009 0.165103 0.00298903)
(100.018 0.245007 0.00414118)
(100.031 0.350621 0.00539248)
(100.051 0.495371 0.00668283)
(100.084 0.700468 0.00782649)
(100.145 1.00145 0.00834911)
(100.288 1.4601 0.00721252)
(100.336 1.86855 0.00666268)
(100.611 2.84751 0.00201287)
(102.435 5.35221 -0.00939816)
(111.113 3.77426 -0.0530698)
(109.01 -6.65959 0.019619)
(102.815 -6.74996 -0.0245539)
(101.142 -4.94828 -0.0328622)
(100.695 -3.94271 -0.0359077)
(100.526 -3.39403 -0.039913)
(100.445 -3.08076 -0.0430848)
(100.38 -2.90501 -0.0432805)
(100.278 -2.69825 -0.10701)
(100.29 -2.32397 -0.232132)
(100.27 -2.22657 -0.23451)
(100.255 -2.17236 -0.237765)
(100.244 -2.14292 -0.24237)
(100.234 -2.12391 -0.248065)
(100.226 -2.10973 -0.254199)
(100.22 -2.09836 -0.260152)
(100.216 -2.08869 -0.265455)
(100.214 -2.08004 -0.269808)
(100.213 -2.07213 -0.27307)
(100.212 -2.06501 -0.275254)
(100.212 -2.05877 -0.27649)
(100.212 -2.05355 -0.276995)
(100.212 -2.04938 -0.277033)
(100.212 -2.04615 -0.276892)
(100.212 -2.04362 -0.276875)
(100.213 -2.04123 -0.277271)
(100.216 -2.03788 -0.278314)
(100.224 -2.03134 -0.27998)
(100.003 0.0427985 0.000580338)
(100.012 0.0895124 0.00114624)
(100.03 0.14504 0.00169555)
(100.059 0.215149 0.00214268)
(100.103 0.307203 0.00235735)
(100.169 0.431212 0.00211103)
(100.271 0.6012 0.000978464)
(100.436 0.836496 -0.00181377)
(100.752 1.16132 -0.00771783)
(100.975 1.39965 -0.0100119)
(101.824 1.85339 -0.0183009)
(103.431 1.75571 -0.0344223)
(105.208 -0.240159 -0.0551233)
(104.768 -2.80359 -0.0370808)
(102.993 -3.52618 -0.0551336)
(101.785 -3.31283 -0.0694843)
(101.16 -2.96395 -0.0773864)
(100.823 -2.67044 -0.0819772)
(100.627 -2.45335 -0.0852107)
(100.495 -2.29512 -0.0879111)
(100.399 -2.17048 -0.0901221)
(100.292 -1.89827 -0.248422)
(100.255 -1.86667 -0.249214)
(100.23 -1.84377 -0.25034)
(100.215 -1.82759 -0.252182)
(100.206 -1.81433 -0.254494)
(100.201 -1.80196 -0.256857)
(100.198 -1.78997 -0.258919)
(100.198 -1.77825 -0.260452)
(100.199 -1.76676 -0.261345)
(100.201 -1.75557 -0.26159)
(100.204 -1.74484 -0.261267)
(100.206 -1.73476 -0.260507)
(100.209 -1.72547 -0.259478)
(100.212 -1.71698 -0.258364)
(100.215 -1.70921 -0.257353)
(100.218 -1.70196 -0.256633)
(100.222 -1.69486 -0.256385)
(100.228 -1.68753 -0.256784)
(100.243 -1.67994 -0.258017)
(100.004 0.0332724 0.000307155)
(100.019 0.0695796 0.000604747)
(100.047 0.112589 0.000742144)
(100.092 0.16648 0.000591684)
(100.158 0.236155 -3.78697e-05)
(100.256 0.327323 -0.0014944)
(100.401 0.446138 -0.00432485)
(100.618 0.596965 -0.00941815)
(100.95 0.776007 -0.0182405)
(101.435 0.860049 -0.032731)
(102.073 0.763952 -0.0548349)
(102.749 0.240619 -0.0852567)
(103.112 -0.739159 -0.119276)
(102.874 -1.56398 -0.149487)
(102.243 -1.87048 -0.178527)
(101.619 -1.87846 -0.200832)
(101.174 -1.7964 -0.215529)
(100.883 -1.69643 -0.225163)
(100.687 -1.60276 -0.231835)
(100.548 -1.52109 -0.236564)
(100.45 -1.45085 -0.239928)
(100.384 -1.388 -0.242209)
(100.337 -1.33762 -0.243836)
(100.304 -1.29643 -0.245272)
(100.28 -1.26347 -0.246688)
(100.264 -1.23708 -0.248076)
(100.252 -1.21539 -0.249374)
(100.244 -1.19711 -0.250506)
(100.238 -1.18148 -0.251399)
(100.234 -1.16797 -0.25201)
(100.232 -1.15624 -0.252338)
(100.231 -1.14608 -0.252416)
(100.23 -1.13734 -0.252315)
(100.23 -1.12991 -0.252121)
(100.23 -1.12359 -0.251947)
(100.231 -1.11825 -0.251907)
(100.232 -1.11365 -0.252124)
(100.234 -1.10954 -0.252721)
(100.238 -1.10572 -0.253827)
(100.245 -1.10225 -0.255584)
(100.005 0.0210875 9.62815e-05)
(100.023 0.0439946 0.000133976)
(100.058 0.0711105 -2.55774e-05)
(100.113 0.104675 -0.000563765)
(100.194 0.147487 -0.00176087)
(100.31 0.201873 -0.00399848)
(100.472 0.269223 -0.00786586)
(100.699 0.347016 -0.0141877)
(101.007 0.422439 -0.0241116)
(101.406 0.456671 -0.0389538)
(101.87 0.394246 -0.0598482)
(102.302 0.16092 -0.0870638)
(102.53 -0.253919 -0.11775)
(102.422 -0.67891 -0.147134)
(102.042 -0.922384 -0.173202)
(101.59 -0.983887 -0.193544)
(101.213 -0.958262 -0.208261)
(100.938 -0.907778 -0.218626)
(100.74 -0.855864 -0.226168)
(100.592 -0.809094 -0.23177)
(100.482 -0.769807 -0.235935)
(100.4 -0.740467 -0.239006)
(100.34 -0.72029 -0.241298)
(100.296 -0.706855 -0.243009)
(100.264 -0.698207 -0.244274)
(100.242 -0.692912 -0.24517)
(100.226 -0.689688 -0.245737)
(100.215 -0.68761 -0.245986)
(100.208 -0.686156 -0.245925)
(100.204 -0.685071 -0.245574)
(100.201 -0.684217 -0.244981)
(100.2 -0.683551 -0.24421)
(100.2 -0.683072 -0.243342)
(100.201 -0.682827 -0.242466)
(100.202 -0.682543 -0.241711)
(100.203 -0.682327 -0.241149)
(100.206 -0.682129 -0.240869)
(100.21 -0.681839 -0.240976)
(100.216 -0.681365 -0.241605)
(100.231 -0.680546 -0.24301)
(100.006 0.00722463 -2.19245e-05)
(100.026 0.0150332 -4.70587e-05)
(100.064 0.0242996 -0.000392905)
(100.124 0.0356295 -0.00108058)
(100.211 0.0500293 -0.00258077)
(100.334 0.0680228 -0.00521148)
(100.502 0.0895915 -0.00960191)
(100.728 0.113257 -0.0164592)
(101.018 0.133969 -0.0268957)
(101.367 0.139266 -0.0416479)
(101.741 0.109456 -0.061332)
(102.065 0.0241008 -0.0857084)
(102.236 -0.113772 -0.112981)
(102.177 -0.257158 -0.140133)
(101.911 -0.349101 -0.163919)
(101.555 -0.378681 -0.183221)
(101.221 -0.374291 -0.197977)
(100.957 -0.360149 -0.208737)
(100.758 -0.345308 -0.216754)
(100.607 -0.331944 -0.222833)
(100.492 -0.320631 -0.227488)
(100.406 -0.311651 -0.231025)
(100.342 -0.30427 -0.233666)
(100.296 -0.297762 -0.23551)
(100.263 -0.291523 -0.23681)
(100.24 -0.285329 -0.237665)
(100.224 -0.279071 -0.238124)
(100.212 -0.272719 -0.238234)
(100.205 -0.266334 -0.238042)
(100.2 -0.260019 -0.237601)
(100.197 -0.253881 -0.236972)
(100.195 -0.248014 -0.236225)
(100.195 -0.242506 -0.235426)
(100.195 -0.237454 -0.234611)
(100.195 -0.232682 -0.234069)
(100.196 -0.228318 -0.233752)
(100.198 -0.224392 -0.233708)
(100.202 -0.2209 -0.234036)
(100.207 -0.217939 -0.234867)
(100.217 -0.215983 -0.236475)
(99.9938 0.00530271 0.00774618)
(99.9725 0.0108274 0.0160154)
(99.9328 0.0166862 0.0254916)
(99.8736 0.0228892 0.0373081)
(99.7935 0.0291392 0.0525621)
(99.6901 0.0346279 0.0725157)
(99.5628 0.0376615 0.0982795)
(99.414 0.0353072 0.131293)
(99.2524 0.0229612 0.172845)
(99.0971 -0.00555356 0.223151)
(98.9802 -0.0557053 0.281142)
(98.9411 -0.125566 0.343887)
(99.0049 -0.196635 0.406876)
(99.1626 -0.250047 0.464746)
(99.3722 -0.276102 0.513651)
(99.587 -0.284219 0.553292)
(99.7808 -0.282703 0.584897)
(99.9456 -0.276048 0.610463)
(100.081 -0.267312 0.631359)
(100.188 -0.258852 0.648574)
(100.271 -0.251719 0.662476)
(100.334 -0.246077 0.673812)
(100.381 -0.241765 0.683347)
(100.417 -0.238874 0.69105)
(100.445 -0.237102 0.697043)
(100.468 -0.236048 0.701628)
(100.486 -0.235542 0.704657)
(100.501 -0.235442 0.706346)
(100.513 -0.235565 0.707097)
(100.523 -0.235778 0.707108)
(100.532 -0.236013 0.70652)
(100.539 -0.236251 0.705448)
(100.545 -0.236471 0.704247)
(100.551 -0.236688 0.703072)
(100.556 -0.236937 0.701966)
(100.561 -0.237284 0.700914)
(100.566 -0.23779 0.699811)
(100.573 -0.238489 0.698749)
(100.581 -0.239455 0.697637)
(100.596 -0.240859 0.696355)
(99.9939 0.0157791 0.00758057)
(99.9731 0.032278 0.015612)
(99.934 0.0499652 0.0249795)
(99.8752 0.0689823 0.0366926)
(99.7944 0.0886473 0.0518509)
(99.6879 0.106843 0.0717602)
(99.553 0.118892 0.0978568)
(99.389 0.116145 0.131779)
(99.2016 0.084282 0.175068)
(99.0089 0.00303926 0.228554)
(98.8505 -0.144166 0.291566)
(98.7918 -0.350642 0.361103)
(98.8752 -0.567181 0.431248)
(99.0785 -0.723668 0.495083)
(99.3322 -0.800587 0.547446)
(99.575 -0.828551 0.588478)
(99.7843 -0.827929 0.620583)
(99.957 -0.811391 0.64626)
(100.095 -0.788471 0.667026)
(100.201 -0.76508 0.683714)
(100.281 -0.744659 0.697008)
(100.341 -0.728947 0.707995)
(100.385 -0.717864 0.71721)
(100.417 -0.710506 0.724615)
(100.441 -0.704713 0.730243)
(100.461 -0.699343 0.734317)
(100.476 -0.69449 0.737039)
(100.489 -0.690313 0.738654)
(100.499 -0.686691 0.739418)
(100.507 -0.683521 0.73953)
(100.514 -0.680793 0.739168)
(100.521 -0.678535 0.738501)
(100.526 -0.676742 0.737724)
(100.531 -0.675476 0.73696)
(100.536 -0.67483 0.736247)
(100.542 -0.674906 0.735568)
(100.547 -0.675833 0.734853)
(100.554 -0.677666 0.734033)
(100.562 -0.68042 0.732997)
(100.575 -0.684054 0.731674)
(99.9942 0.0258547 0.0072119)
(99.9744 0.0530709 0.0148779)
(99.9369 0.0827626 0.0238997)
(99.8795 0.115584 0.0352542)
(99.7985 0.151128 0.0500749)
(99.6879 0.187024 0.0697867)
(99.5401 0.217055 0.0961286)
(99.3479 0.227851 0.13119)
(99.1084 0.193406 0.177278)
(98.8381 0.0665514 0.236437)
(98.5947 -0.258411 0.309269)
(98.4874 -0.708084 0.391426)
(98.6087 -1.11285 0.473653)
(98.9057 -1.34259 0.547094)
(99.2391 -1.43556 0.604255)
(99.5295 -1.46302 0.646628)
(99.7665 -1.4469 0.678731)
(99.9539 -1.40949 0.704037)
(100.097 -1.36601 0.724158)
(100.203 -1.32332 0.739854)
(100.279 -1.28692 0.751806)
(100.333 -1.25629 0.761833)
(100.37 -1.24015 0.770664)
(100.398 -1.23529 0.778014)
(100.42 -1.2335 0.783564)
(100.437 -1.23138 0.787334)
(100.449 -1.22884 0.789541)
(100.457 -1.22614 0.790439)
(100.463 -1.22328 0.790292)
(100.468 -1.22032 0.789373)
(100.471 -1.21736 0.787949)
(100.473 -1.21457 0.786276)
(100.475 -1.21208 0.784566)
(100.477 -1.21003 0.782961)
(100.479 -1.20858 0.781521)
(100.481 -1.20797 0.780211)
(100.483 -1.20841 0.778916)
(100.486 -1.2101 0.777471)
(100.491 -1.21304 0.775729)
(100.5 -1.21679 0.773742)
(99.9948 0.035085 0.00663926)
(99.977 0.0723458 0.0137363)
(99.9429 0.113866 0.0221366)
(99.8896 0.161412 0.0327796)
(99.8117 0.215945 0.0468053)
(99.7 0.276788 0.0657138)
(99.5405 0.339661 0.0915036)
(99.3129 0.392139 0.126772)
(98.9885 0.404981 0.174899)
(98.5041 0.207694 0.24015)
(98.2494 0.0257748 0.273165)
(97.9118 -0.630161 0.349646)
(97.9821 -1.42213 0.431088)
(98.4561 -1.93164 0.507073)
(98.9427 -2.07979 0.565719)
(99.325 -2.1166 0.60589)
(99.6375 -2.0845 0.634)
(99.8757 -2.01574 0.655279)
(100.051 -1.93941 0.672081)
(100.178 -1.87059 0.68547)
(100.33 -1.89957 0.824541)
(100.36 -1.83418 0.833844)
(100.365 -1.79206 0.840217)
(100.367 -1.76972 0.845128)
(100.369 -1.75572 0.84914)
(100.369 -1.74608 0.852064)
(100.363 -1.73941 0.853691)
(100.353 -1.73455 0.854004)
(100.34 -1.73075 0.85315)
(100.326 -1.72773 0.851372)
(100.311 -1.7254 0.848966)
(100.295 -1.72375 0.846225)
(100.278 -1.72277 0.843401)
(100.261 -1.72245 0.840655)
(100.244 -1.72287 0.838047)
(100.225 -1.72416 0.835507)
(100.206 -1.72656 0.832832)
(100.188 -1.73039 0.829707)
(100.17 -1.73577 0.825772)
(100.151 -1.74176 0.820776)
(99.9958 0.0427514 0.00585438)
(99.9813 0.088594 0.0121447)
(99.9533 0.140822 0.0196088)
(99.9085 0.202846 0.0290806)
(99.8406 0.278107 0.0416083)
(99.7385 0.369969 0.05862)
(99.583 0.48091 0.0821151)
(99.3421 0.609323 0.114816)
(98.9124 0.741513 0.160398)
(98.5728 0.742863 0.186256)
(97.7735 0.351857 0.25229)
(96.9855 -0.709558 0.337439)
(97.0926 -2.3415 0.435732)
(98.2081 -2.9312 0.527745)
(98.902 -2.95972 0.592123)
(99.3553 -2.93703 0.62812)
(99.7186 -2.83364 0.650472)
(99.9664 -2.70624 0.667492)
(100.131 -2.58527 0.68177)
(100.234 -2.48538 0.694475)
(100.297 -2.43159 0.710277)
(100.201 -2.55168 0.855105)
(100.055 -2.5424 0.851634)
(99.9205 -2.52046 0.843696)
(99.8022 -2.49334 0.834319)
(99.6916 -2.46825 0.824025)
(99.5869 -2.44605 0.812571)
(99.4887 -2.42588 0.799922)
(99.3969 -2.40739 0.786348)
(99.311 -2.39066 0.77232)
(99.2304 -2.37572 0.758393)
(99.1545 -2.3625 0.745087)
(99.0826 -2.35083 0.732793)
(99.0144 -2.34055 0.72172)
(98.9492 -2.33155 0.711864)
(98.8867 -2.32385 0.702994)
(98.8266 -2.31768 0.694624)
(98.7693 -2.31362 0.686057)
(98.7165 -2.3129 0.676452)
(98.664 -2.31791 0.665205)
(99.9972 0.0480231 0.00494735)
(99.9877 0.0998899 0.0102066)
(99.9688 0.160166 0.0163959)
(99.9379 0.234032 0.0241763)
(99.8896 0.327863 0.0343599)
(99.8137 0.450432 0.048057)
(99.6914 0.614707 0.0668145)
(99.4865 0.840073 0.0927488)
(99.0765 1.15658 0.128573)
(98.6725 1.31324 0.150059)
(97.729 1.44633 0.17962)
(95.6436 0.665442 0.233585)
(94.4732 -3.46927 0.33)
(98.2969 -4.70589 0.443755)
(98.7514 -3.85752 0.500018)
(99.31 -3.84571 0.52822)
(99.7342 -3.63349 0.535025)
(99.9254 -3.39896 0.538063)
(99.9699 -3.21886 0.543224)
(99.8946 -3.06966 0.550857)
(98.5929 -2.91111 0.659866)
(95.2253 -2.58895 0.44179)
(95.2738 -2.67641 0.424064)
(95.3368 -2.71962 0.409364)
(95.3864 -2.73728 0.396842)
(95.4275 -2.74191 0.385416)
(95.4689 -2.73759 0.374145)
(95.5137 -2.72673 0.362626)
(95.5617 -2.71198 0.350929)
(95.612 -2.69575 0.339381)
(95.6634 -2.67978 0.328382)
(95.7151 -2.66506 0.318296)
(95.7662 -2.65201 0.309296)
(95.816 -2.64067 0.301401)
(95.8641 -2.63083 0.294434)
(95.9106 -2.62229 0.287991)
(95.9553 -2.61495 0.281405)
(95.9986 -2.60904 0.273694)
(96.0404 -2.60554 0.263467)
(96.0903 -2.60727 0.248703)
(99.999 0.049988 0.00383759)
(99.9955 0.104279 0.00791249)
(99.9885 0.16826 0.012602)
(99.9765 0.248329 0.0182927)
(99.9571 0.352977 0.0254253)
(99.9253 0.495125 0.0345428)
(99.873 0.695902 0.0462766)
(99.7853 0.992573 0.0611522)
(99.6134 1.45648 0.0791017)
(99.3473 1.84778 0.0897899)
(98.63 2.76554 0.100276)
(95.4852 5.71327 0.11478)
(77.3051 -4.56219 0.188697)
(59.5516 -6.50109 -1.5845)
(71.5846 -3.65623 -0.26778)
(74.8367 -2.76319 -0.285272)
(78.2259 -2.56731 -0.350225)
(81.6417 -2.64538 -0.412067)
(84.8172 -2.88012 -0.458441)
(92.9655 -3.82396 -0.590755)
(96.3661 -3.4674 -0.674581)
(96.5385 -3.35694 -0.666374)
(96.7051 -3.27267 -0.655904)
(96.8301 -3.2053 -0.64387)
(96.9241 -3.14712 -0.630768)
(97.0008 -3.09491 -0.616685)
(97.0674 -3.04741 -0.601904)
(97.1278 -3.00409 -0.586874)
(97.1845 -2.96472 -0.572031)
(97.2395 -2.92923 -0.557717)
(97.2938 -2.89752 -0.544169)
(97.3478 -2.86944 -0.531531)
(97.4014 -2.8447 -0.519927)
(97.4544 -2.82298 -0.509493)
(97.5066 -2.80387 -0.500459)
(97.558 -2.78689 -0.493258)
(97.6086 -2.77141 -0.488561)
(97.6585 -2.75642 -0.4874)
(97.7198 -2.73977 -0.491089)
(100.001 0.0480037 0.00273334)
(100.004 0.100369 0.00557595)
(100.01 0.162516 0.00867164)
(100.019 0.240962 0.0121036)
(100.032 0.344425 0.0158932)
(100.053 0.485937 0.0199398)
(100.085 0.686149 0.023817)
(100.145 0.979786 0.0263442)
(100.282 1.42749 0.0247095)
(100.327 1.82963 0.0223967)
(100.591 2.79621 0.00951749)
(102.367 5.29079 -0.0343956)
(110.865 4.02932 -0.11129)
(108.96 -6.46706 -0.297915)
(102.785 -6.74171 -0.397326)
(101.117 -4.94648 -0.466894)
(100.668 -3.95456 -0.50168)
(100.498 -3.41928 -0.513986)
(100.417 -3.11352 -0.515184)
(100.353 -2.93922 -0.513167)
(100.255 -2.77153 -0.602777)
(100.283 -2.37441 -0.758627)
(100.269 -2.2783 -0.759035)
(100.26 -2.22118 -0.756635)
(100.253 -2.18651 -0.754016)
(100.246 -2.1612 -0.751839)
(100.241 -2.14085 -0.749757)
(100.238 -2.12436 -0.7474)
(100.236 -2.11108 -0.74456)
(100.235 -2.10045 -0.741154)
(100.233 -2.09209 -0.737207)
(100.231 -2.08575 -0.732853)
(100.229 -2.08121 -0.728295)
(100.226 -2.07825 -0.723772)
(100.223 -2.07661 -0.719613)
(100.219 -2.07595 -0.716199)
(100.216 -2.07582 -0.714017)
(100.213 -2.07547 -0.713643)
(100.212 -2.07369 -0.715681)
(100.219 -2.06821 -0.720287)
(100.003 0.0421189 0.0016637)
(100.012 0.088164 0.00336447)
(100.03 0.142782 0.00496539)
(100.059 0.211601 0.00627648)
(100.102 0.301777 0.00695608)
(100.167 0.423015 0.00637717)
(100.268 0.588996 0.00336354)
(100.43 0.818597 -0.00426029)
(100.737 1.13547 -0.0206058)
(100.958 1.36962 -0.0319568)
(101.79 1.81602 -0.0721314)
(103.371 1.71894 -0.149689)
(105.119 -0.241576 -0.264788)
(104.685 -2.77658 -0.392538)
(102.941 -3.51238 -0.489801)
(101.75 -3.30329 -0.551521)
(101.137 -2.96207 -0.586817)
(100.809 -2.67622 -0.605869)
(100.618 -2.46506 -0.616048)
(100.489 -2.31136 -0.621667)
(100.395 -2.18944 -0.625462)
(100.296 -1.89748 -0.774463)
(100.26 -1.86838 -0.774735)
(100.234 -1.84664 -0.773644)
(100.219 -1.82992 -0.771825)
(100.209 -1.81466 -0.769358)
(100.204 -1.79937 -0.766214)
(100.202 -1.78409 -0.76243)
(100.202 -1.76912 -0.758111)
(100.204 -1.7547 -0.7534)
(100.207 -1.74107 -0.748465)
(100.21 -1.72848 -0.743481)
(100.213 -1.71709 -0.738635)
(100.216 -1.70697 -0.734102)
(100.218 -1.69803 -0.73011)
(100.221 -1.69006 -0.726917)
(100.223 -1.68271 -0.72485)
(100.226 -1.67548 -0.724296)
(100.231 -1.66789 -0.725679)
(100.244 -1.66011 -0.72935)
(100.004 0.0327801 0.000815379)
(100.019 0.0685511 0.00156598)
(100.047 0.110853 0.00193427)
(100.091 0.163785 0.00152077)
(100.157 0.232031 -0.000283352)
(100.253 0.321172 -0.00444343)
(100.395 0.437185 -0.0125263)
(100.607 0.584284 -0.0270842)
(100.932 0.758649 -0.0523146)
(101.405 0.841133 -0.0942737)
(102.027 0.74859 -0.159125)
(102.687 0.239223 -0.250457)
(103.039 -0.712983 -0.359459)
(102.805 -1.52086 -0.472932)
(102.189 -1.82377 -0.565771)
(101.584 -1.83192 -0.629933)
(101.155 -1.75202 -0.670874)
(100.876 -1.65518 -0.697008)
(100.686 -1.56467 -0.714322)
(100.552 -1.48583 -0.72584)
(100.457 -1.41802 -0.733246)
(100.391 -1.35759 -0.737526)
(100.344 -1.30953 -0.740735)
(100.309 -1.26976 -0.743203)
(100.284 -1.23703 -0.744651)
(100.265 -1.21001 -0.745075)
(100.252 -1.18723 -0.744664)
(100.242 -1.16776 -0.743577)
(100.235 -1.15103 -0.741931)
(100.231 -1.13668 -0.739846)
(100.229 -1.1244 -0.737471)
(100.228 -1.11398 -0.734972)
(100.228 -1.10524 -0.732534)
(100.228 -1.098 -0.730337)
(100.229 -1.09205 -0.728595)
(100.23 -1.08714 -0.72753)
(100.232 -1.08297 -0.727384)
(100.235 -1.0792 -0.728424)
(100.239 -1.07563 -0.730911)
(100.246 -1.07237 -0.734982)
(100.005 0.0207563 0.000206932)
(100.023 0.0433524 0.000279203)
(100.058 0.070013 -0.000215239)
(100.113 0.103054 -0.00180229)
(100.192 0.144976 -0.00529335)
(100.306 0.198182 -0.0117774)
(100.465 0.264003 -0.0229238)
(100.687 0.340017 -0.0411521)
(100.988 0.413653 -0.0697962)
(101.376 0.447471 -0.112878)
(101.828 0.387352 -0.174028)
(102.249 0.160336 -0.254147)
(102.471 -0.245146 -0.347134)
(102.368 -0.659892 -0.440517)
(101.998 -0.895807 -0.521128)
(101.561 -0.954735 -0.581413)
(101.198 -0.929344 -0.623209)
(100.934 -0.880259 -0.652067)
(100.743 -0.83003 -0.672569)
(100.601 -0.784997 -0.687293)
(100.494 -0.747404 -0.697736)
(100.413 -0.719685 -0.705029)
(100.353 -0.700851 -0.71036)
(100.307 -0.688126 -0.714066)
(100.273 -0.679645 -0.716166)
(100.248 -0.674078 -0.716786)
(100.229 -0.670263 -0.716157)
(100.215 -0.667392 -0.714509)
(100.206 -0.665068 -0.712051)
(100.2 -0.66313 -0.708999)
(100.197 -0.661503 -0.705574)
(100.195 -0.660181 -0.702003)
(100.195 -0.659159 -0.698507)
(100.196 -0.658437 -0.695295)
(100.198 -0.657923 -0.692616)
(100.201 -0.657563 -0.690641)
(100.205 -0.657236 -0.689558)
(100.21 -0.656817 -0.689596)
(100.218 -0.65621 -0.691023)
(100.232 -0.655405 -0.694188)
(100.006 0.00710546 -0.000117643)
(100.026 0.0148518 -0.000352937)
(100.064 0.0239277 -0.00132019)
(100.123 0.0350984 -0.00343744)
(100.209 0.0491481 -0.00779271)
(100.33 0.066717 -0.0153641)
(100.495 0.087789 -0.027836)
(100.716 0.110938 -0.0474617)
(101 0.131139 -0.0772303)
(101.34 0.136517 -0.119831)
(101.704 0.107937 -0.177344)
(102.02 0.0255222 -0.249269)
(102.188 -0.1081 -0.330665)
(102.133 -0.247392 -0.412385)
(101.876 -0.336187 -0.484698)
(101.533 -0.364793 -0.542029)
(101.212 -0.360581 -0.584053)
(100.959 -0.346908 -0.614151)
(100.767 -0.332622 -0.636118)
(100.621 -0.319815 -0.652341)
(100.509 -0.309064 -0.664283)
(100.423 -0.300611 -0.672956)
(100.359 -0.29363 -0.679189)
(100.31 -0.287296 -0.683448)
(100.274 -0.281125 -0.686129)
(100.247 -0.274912 -0.68739)
(100.227 -0.268562 -0.687391)
(100.212 -0.26208 -0.686344)
(100.201 -0.255566 -0.684472)
(100.194 -0.249156 -0.682003)
(100.19 -0.242974 -0.679168)
(100.187 -0.237119 -0.676194)
(100.187 -0.231668 -0.673293)
(100.188 -0.226664 -0.670628)
(100.19 -0.222092 -0.668642)
(100.193 -0.217963 -0.667364)
(100.197 -0.214266 -0.666928)
(100.202 -0.210989 -0.667544)
(100.209 -0.208228 -0.669455)
(100.219 -0.206476 -0.672976)
(99.9941 0.00518801 0.0123656)
(99.9741 0.0105913 0.0254886)
(99.9367 0.0163534 0.0407718)
(99.881 0.0224685 0.0597779)
(99.8057 0.0286543 0.0841983)
(99.7087 0.0341613 0.116022)
(99.5894 0.0374281 0.157361)
(99.4502 0.0356918 0.210524)
(99.2995 0.0246103 0.277523)
(99.155 -0.00159532 0.359117)
(99.0468 -0.0482798 0.453884)
(99.0113 -0.113088 0.557079)
(99.0718 -0.179303 0.660565)
(99.22 -0.228811 0.755805)
(99.4159 -0.252614 0.836328)
(99.6163 -0.25969 0.901264)
(99.797 -0.257686 0.95283)
(99.9508 -0.250796 0.994026)
(100.077 -0.242011 1.02714)
(100.177 -0.233723 1.0538)
(100.256 -0.226802 1.0752)
(100.317 -0.221207 1.09268)
(100.365 -0.216868 1.10748)
(100.402 -0.214077 1.12017)
(100.431 -0.212645 1.1308)
(100.456 -0.21209 1.13928)
(100.477 -0.21207 1.14558)
(100.494 -0.212349 1.14995)
(100.509 -0.212716 1.15272)
(100.521 -0.213006 1.15419)
(100.531 -0.213131 1.15463)
(100.539 -0.213084 1.15435)
(100.546 -0.21289 1.15366)
(100.551 -0.212608 1.15277)
(100.555 -0.212308 1.15181)
(100.559 -0.212093 1.15083)
(100.563 -0.212064 1.14979)
(100.567 -0.212305 1.1486)
(100.573 -0.212915 1.14702)
(100.584 -0.214077 1.14468)
(99.9943 0.0154223 0.012079)
(99.9747 0.0315639 0.0249203)
(99.9379 0.0489202 0.0399532)
(99.8827 0.0676103 0.0587356)
(99.8068 0.086996 0.0830128)
(99.7071 0.105112 0.114918)
(99.5808 0.1176 0.156895)
(99.4276 0.1163 0.211724)
(99.2528 0.0876827 0.28213)
(99.0731 0.0126317 0.369898)
(98.9264 -0.124646 0.474222)