/*--------------------------------*- C++ -*----------------------------------*\
| =========                 |                                                 |
| \\      /  F ield         | OpenFOAM: The Open Source CFD Toolbox           |
|  \\    /   O peration     | Version:  2306                                  |
|   \\  /    A nd           | Website:  www.openfoam.com                      |
|    \\/     M anipulation  |                                                 |
\*---------------------------------------------------------------------------*/
FoamFile
{
    version     2.0;
    format      ascii;
    arch        "LSB;label=32;scalar=64";
    class       volVectorField;
    location    "1.3";
    object      Force;
}
// * * * * * * * * * * * * * * * * * * * * * * * * * * * * * * * * * * * * * //

dimensions      [1 1 -2 0 0 0 0];

internalField   uniform (0 0 0);

boundaryField
{
    walls
    {
        type            calculated;
        value           uniform (0 0 0);
    }
    inlet
    {
        type            calculated;
        value           uniform (0 0 0);
    }
    outlet
    {
        type            calculated;
        value           uniform (0 0 0);
    }
    NASA
    {
        type            calculated;
        value           nonuniform List<vector> 
14179
(
(-0.014457 -0.132955 1.15168e-05)
(-0.0129181 -0.10679 8.41765e-06)
(-0.0663569 -0.53657 0.00114122)
(-0.101639 -0.817687 0.00442366)
(-0.0654456 -0.529712 0.000584914)
(-0.110313 -0.887403 0.00486088)
(0.207878 0.902291 -0.000477186)
(0.102315 0.513624 -8.78678e-05)
(0.6587 3.22957 0.00313112)
(0.109896 0.551736 -9.33536e-05)
(-0.000200978 -0.00567957 3.99651e-06)
(-0.0179233 -0.146791 0.000773875)
(0.129951 0.649213 -0.00323743)
(-0.0356981 -0.324692 0.00183127)
(0.0616154 0.307431 -0.00149845)
(1.37781 0.929447 0.00284048)
(1.3882 0.920147 -0.0005046)
(0.0225435 0.126487 -7.37103e-05)
(0.161009 0.955404 -0.000158435)
(1.2645 0.838222 -0.00486437)
(-0.0170038 -0.237928 5.8673e-07)
(-0.0211827 -0.196958 -0.00010005)
(-0.0194541 -0.27008 -0.000205869)
(-0.00861244 -0.0627343 5.00623e-06)
(-0.0130929 -0.108285 3.15886e-05)
(-0.00930833 -0.0678047 2.52704e-05)
(-0.0129071 -0.106339 0.000547122)
(-0.0151587 -0.108645 0.000577602)
(-0.0132644 -0.121195 0.000622214)
(-0.0155147 -0.213065 0.00415127)
(0.0467946 0.204362 -4.07254e-06)
(0.0526619 0.248323 -8.79136e-06)
(0.0566262 0.267009 -0.00011109)
(0.0461573 0.201045 -2.60923e-05)
(0.0719681 0.263968 -8.40401e-06)
(0.0722746 0.26505 -1.78996e-05)
(0.0371883 0.134907 -3.93955e-06)
(0.038125 0.138303 -1.06703e-05)
(-0.00219758 -0.0104545 0.000169781)
(-0.0128897 -0.0627438 0.000797783)
(0.168744 0.616344 -0.00254214)
(0.0985821 0.355494 -0.00105649)
(0.102997 0.51693 -0.000152209)
(-0.00593886 -0.0417617 4.70816e-06)
(-0.00540889 -0.0380251 3.17871e-06)
(0.167028 0.83879 -0.000255676)
(-0.00986143 -0.0682798 0.000396067)
(0.0964867 0.481834 -0.00164042)
(0.0896685 0.448223 -0.0016608)
(0.107505 0.439253 -0.000399509)
(0.084275 0.31329 -2.69147e-05)
(0.0839165 0.311971 -7.43679e-05)
(-0.067446 1.64497 -0.000270583)
(1.38728 0.922423 -0.000773049)
(-0.0677838 1.66574 8.62644e-05)
(-0.00291771 1.4261 -0.000263465)
(0.0638755 0.966031 1.30475e-05)
(0.0651645 0.982551 -0.000250139)
(-0.00290038 1.44422 -2.83571e-05)
(0.084077 0.330435 -2.91178e-05)
(0.159548 0.945892 -0.000284496)
(0.00732903 0.0266415 -1.89107e-05)
(-0.0228611 0.567339 -0.00197895)
(0.913943 0.623874 0.0744579)
(-0.000763277 0.532563 -0.00215048)
(0.0268498 0.407495 -0.00152843)
(0.126621 0.741296 0.0051749)
(-0.0145797 -0.145882 1.4978e-05)
(-0.0143992 -0.132509 2.28421e-05)
(-0.0999981 -0.804594 0.00434679)
(-0.0113908 -0.0903412 7.86032e-06)
(-0.0128961 -0.106618 1.80728e-05)
(1.31187 0.868613 -0.00568361)
(1.2639 0.83711 -0.00526618)
(0.344759 2.0449 -0.0119848)
(0.259641 1.53443 -0.0083275)
(-0.111694 -0.899754 0.00345111)
(-0.0570682 -0.355245 0.00198591)
(-0.0560655 -0.351452 0.00202045)
(-0.0432584 -0.253795 0.0014422)
(0.156159 0.673571 -0.00383617)
(0.175411 0.758565 -0.00423361)
(0.762495 1.30916 -4.80165e-05)
(0.762812 1.30777 -0.000313301)
(0.10448 0.524388 -0.000121351)
(0.0914658 0.439437 -6.31891e-05)
(-0.000252347 -0.0030457 -4.73831e-07)
(0.00147483 0.00746618 -4.9275e-07)
(0.00150665 0.00764689 -2.54999e-06)
(-0.000242682 -0.00297866 3.13747e-07)
(0.113548 0.570087 -0.00011548)
(0.103192 0.532253 -7.36409e-05)
(-0.0201031 -0.164371 0.000932119)
(-0.0135752 -0.0973634 0.000574712)
(-0.0204074 -0.145768 0.000824437)
(-0.0124047 -0.0856061 0.000537131)
(-0.0181828 -0.124769 0.000662017)
(0.0849542 0.423985 -0.0023891)
(-0.0200758 -0.182733 0.00101893)
(-0.0247681 -0.340244 0.00200754)
(-0.0208527 -0.292997 0.00103116)
(0.0796776 0.398028 -0.00221486)
(1.37493 0.92344 -0.00265592)
(0.100744 0.593958 -0.000128684)
(0.109205 0.610767 -5.76054e-05)
(0.110586 0.618271 -0.000132029)
(0.181617 1.26432 -0.00024034)
(0.100311 0.595009 -0.000121964)
(0.160028 0.949378 -0.000195956)
(0.0285984 0.0270488 2.39208e-05)
(0.324381 -0.119538 0.00325261)
(0.347067 -0.1376 0.00163061)
(0.0165841 0.0159456 -4.2064e-05)
(-0.00690892 -0.0295952 0.000236137)
(0.021212 0.0781983 -0.000382676)
(0.00195998 0.00660607 3.25877e-05)
(0.0211808 0.0852469 -0.000313374)
(-0.00969463 -0.0432619 0.000259104)
(-0.00209317 -0.011572 0.000144411)
(0.00399957 0.0166358 -3.75347e-05)
(-0.0181895 -0.0879676 0.00049231)
(-0.00110777 0.73013 -0.00379011)
(0.0405372 0.605997 -0.00324432)
(-0.00161309 0.979012 -0.00515595)
(0.031606 0.478761 -0.0028723)
(-0.0346891 0.866081 -0.00468297)
(1.09327 0.73549 -0.00453732)
(-0.0470162 1.16129 -0.00606659)
(0.108779 0.643957 -0.00448661)
(0.155145 0.607666 -0.00359733)
(0.116661 0.456304 -0.00247431)
(0.107509 0.392347 -0.00210937)
(0.15195 0.555249 -0.00298255)
(0.0626294 0.226007 -0.00121326)
(0.0853039 0.308367 -0.00172867)
(-0.0131434 -0.148093 6.83277e-06)
(-0.0168913 -0.236026 3.38597e-05)
(-0.0104434 -0.0804497 7.31218e-06)
(-0.00846478 -0.0616637 9.52161e-06)
(0.000673372 0.00210042 0.531528)
(-0.0129534 -0.101946 0.000531876)
(0.000642907 0.00200632 0.505514)
(-0.0144108 -0.109827 0.000584206)
(0.000966109 0.00242025 0.574773)
(-0.0129855 -0.129693 0.000730556)
(0.00122193 0.00286262 0.575792)
(-0.0120879 -0.139318 0.00157157)
(0.0524549 0.247332 -5.22112e-05)
(0.0391107 0.177876 -1.66597e-05)
(0.0394255 0.179331 -3.87616e-05)
(0.0463781 0.201981 -3.23903e-05)
(0.0456553 0.20108 -1.87389e-05)
(0.0458913 0.202143 -4.00845e-05)
(0.0707094 0.259175 -1.87316e-05)
(0.0240169 0.119446 -2.3823e-05)
(0.0214759 0.108954 -2.19537e-05)
(0.0372972 0.135212 -5.22879e-06)
(0.0324913 0.114294 -4.13525e-06)
(-0.00657653 -0.0300811 0.000307289)
(-0.00552789 -0.0263209 0.000324128)
(0.000494238 0.0016325 0.318113)
(0.000491057 0.00157662 0.311057)
(0.000479482 0.00154606 0.307216)
(0.000338574 0.00154219 0.352673)
(0.0928777 0.316536 -0.000688503)
(0.158775 0.555255 0.00197766)
(4.66941e-06 0.00155613 0.331918)
(0.000402238 0.000887325 0.301166)
(0.000122703 0.000539905 0.106078)
(0.0812718 0.285321 -0.000823415)
(0.285003 0.662124 -1.11426e-05)
(0.167293 0.589803 4.39985e-05)
(0.165604 0.583897 -6.40562e-05)
(0.0808528 0.377619 -4.49803e-05)
(0.0801725 0.374435 -7.66329e-05)
(0.138503 0.661632 -8.62292e-05)
(0.0781859 0.348129 -6.62909e-05)
(0.0817474 0.371036 -3.84216e-05)
(0.0818733 0.371514 -7.29058e-05)
(0.0775637 0.345484 -2.87412e-05)
(-0.00470064 -0.0331117 4.36558e-06)
(-0.0058671 -0.0412609 5.26346e-06)
(0.158581 0.840056 -8.87531e-05)
(0.263913 0.455257 0.00953571)
(0.0012684 0.00512779 0.85898)
(0.000349855 0.0027352 0.410225)
(0.0481708 0.140138 -0.000356734)
(-0.0118267 -0.0737853 0.000471977)
(-0.0118323 -0.0747173 0.000619122)
(0.00111851 0.00323073 0.675802)
(0.000403742 0.00095709 0.308738)
(0.0956158 0.49088 -0.000695016)
(0.000618655 0.00104773 0.372413)
(0.139115 0.731376 0.00272954)
(0.000635825 0.00188367 0.34537)
(0.000484442 0.00164334 0.326888)
(-0.000232273 0.00140729 0.349951)
(7.09746e-05 0.000680164 0.111643)
(0.0799754 0.38207 -0.00144805)
(0.102524 0.476408 -0.000748833)
(0.000509405 0.000661094 0.20444)
(9.87787e-05 0.000762266 0.106901)
(0.16859 0.70866 -0.000669408)
(0.0842985 0.313378 -4.24832e-05)
(0.0802879 0.307346 -3.28875e-05)
(0.0957689 0.390419 -6.3544e-05)
(0.0671982 0.270658 -1.88835e-05)
(-0.908342 2.90381 -0.0222679)
(-0.0681828 1.66979 -0.000105502)
(-0.204211 1.90848 0.00082975)
(0.0645973 0.97303 -0.000115805)
(0.0513245 1.09421 -6.06882e-05)
(-0.0029178 1.44953 -9.8226e-05)
(0.0340133 1.27625 -5.52816e-05)
(0.104291 1.1447 -0.000116949)
(0.130753 1.68811 -0.00012345)
(0.125757 1.62196 -0.000165931)
(0.104923 1.15218 -0.000100747)
(0.120753 1.23355 -0.000154347)
(0.125938 1.17195 -4.35468e-05)
(0.12841 1.19499 -0.000187144)
(0.118506 1.21038 -4.52013e-05)
(0.0596847 0.247259 -3.7515e-05)
(0.0528446 0.209629 -2.925e-05)
(0.0834863 0.327928 -3.36482e-05)
(0.10992 0.744617 -0.000160142)
(0.1059 0.666969 -0.000128245)
(-0.000197627 0.00200036 0.564999)
(0.00111932 0.00457701 0.889657)
(0.000913685 0.00274449 0.000129734)
(0.00058136 0.00458956 0.735953)
(0.00188121 0.006331 0.000112764)
(0.000630645 0.0109051 0.274073)
(-0.0604359 0.579358 -0.00257636)
(0.00764657 0.00112368 1.74236)
(0.000449703 0.00126628 0.302567)
(0.01406 0.51499 -0.00214513)
(0.00083056 0.000682698 0.243855)
(0.0230479 0.483186 -0.00189816)
(0.0608551 0.52387 -0.0021454)
(0.0605907 0.514128 -0.00209161)
(0.000432704 0.00102104 0.242943)
(0.000464962 0.00111875 0.267333)
(0.0570589 0.526734 -0.00204341)
(0.0518665 0.523571 -0.00173741)
(0.0469515 0.514126 -0.000403014)
(2.48884e-05 0.000105778 0.223495)
(-0.0190795 -0.104768 0.00145978)
(0.000330465 0.00197718 0.501738)
(0.0910018 0.506241 -0.0016792)
(0.000484293 0.00159452 0.317509)
(0.00048658 0.00160127 0.318734)
(0.485543 -0.193415 -0.00365218)
(0.224812 0.212575 0.00159462)
(0.000193377 0.000294374 0.0779436)
(-0.05348 -0.525789 0.00193681)
(-0.070492 -0.569327 0.00210693)
(-0.0558084 -0.548336 0.00255515)
(-0.0707887 -0.571693 0.00216008)
(-0.075558 -0.609648 0.0028546)
(-0.0593867 -0.583103 0.00301334)
(-0.083657 -0.674215 0.00350153)
(0.178164 0.771261 -0.00430434)
(0.445559 2.18217 -0.0119373)
(0.18178 0.7873 -0.00437963)
(0.425103 2.08146 -0.0114221)
(-0.0655032 -0.530049 0.000657309)
(-0.0429912 -0.268151 0.00147563)
(-0.105857 -0.851338 0.00462265)
(-0.0486869 -0.303242 0.00167441)
(1.38551 0.918493 -0.00124284)
(1.3867 0.919154 -0.000566861)
(0.211211 0.916741 -0.00060801)
(0.649455 3.18626 -0.0034922)
(0.59515 2.91947 -0.00202216)
(0.230123 0.998684 -0.00104831)
(0.39618 2.34877 -0.00168228)
(0.415912 2.46583 -0.00280526)
(-0.00068281 -0.00753522 9.41054e-06)
(-0.000246077 -0.00545114 4.64482e-06)
(0.0224601 0.127109 -0.000145137)
(0.0228904 0.129035 -9.33318e-05)
(0.0481561 0.208954 -0.00103034)
(0.0351746 0.159714 -0.000784121)
(0.0582785 0.253682 -0.0012921)
(0.0269341 0.121383 -0.00056458)
(-0.109423 -0.880858 0.00481568)
(-0.0697102 -0.506763 0.00278379)
(0.0158508 0.0740195 -0.000282094)
(-0.0117646 -0.0650596 0.000417295)
(0.0633671 0.231106 -0.00131062)
(0.0712441 0.259802 -0.00145009)
(0.0344219 0.124105 -0.000705957)
(0.0397923 0.143461 -0.000801509)
(0.279763 1.26542 -0.000710385)
(0.17512 0.759691 -0.000242207)
(0.317467 1.50078 -0.000880414)
(0.14566 0.730956 -0.000295928)
(-0.0187458 -0.157792 0.00020817)
(-0.0426829 -0.316441 0.000420821)
(-0.00694308 -0.0507494 -2.04094e-06)
(0.000639886 -0.00118519 1.12868e-06)
(-0.0182432 -0.125122 7.06081e-05)
(-0.0242142 -0.169483 0.000128087)
(0.0965368 0.394751 6.63559e-05)
(0.083568 0.310735 -0.000171789)
(0.0837531 0.311378 -0.000102687)
(0.107924 0.442846 -0.000834294)
(0.164708 0.723565 -0.000362744)
(0.141431 0.651865 -0.000231574)
(0.172117 0.756768 -0.000417789)
(0.181009 0.84419 -0.000261347)
(-0.0029233 1.3877 -0.000301678)
(0.0641546 0.969816 -0.000507201)
(-0.00258174 1.16554 -0.000589786)
(0.0656248 0.990233 -0.00030266)
(-0.0659765 1.60968 -0.0003184)
(1.38777 0.921092 -0.000481508)
(-0.0581719 1.41834 -0.000668205)
(0.497996 4.27087 -0.00261532)
(0.0797939 0.313582 -9.21987e-05)
(0.0765385 0.3006 -0.000179193)
(0.0784952 0.287711 -0.000172035)
(0.0749939 0.275079 -5.81416e-05)
(0.0567586 0.297571 -0.000210779)
(0.18348 0.905666 -0.0013895)
(0.0217474 0.121155 -9.76676e-05)
(0.0472413 0.253506 -0.000147264)
(0.769918 4.81749 0.00084317)
(0.368083 2.45887 -8.07353e-05)
(0.0398415 0.144429 -8.72832e-05)
(0.0390776 0.141799 -3.25804e-05)
(1.24609 0.827934 -0.00376888)
(0.0894862 0.619815 -0.00340465)
(0.245796 0.230569 -0.00129016)
(0.495321 -0.205353 0.000530619)
(0.23264 0.218908 -0.001304)
(0.516648 -0.214563 0.000289215)
(0.0708674 0.259776 -1.50021e-05)
(0.0336113 0.118225 -9.02698e-06)
(0.0377016 0.136707 -3.51616e-06)
(0.284743 0.661555 -3.63186e-05)
(0.274487 0.80582 -0.000146782)
(0.00104121 0.00356986 0.727331)
(0.000430717 0.00197446 0.360755)
(0.00061611 0.00108053 0.381424)
(-0.204172 1.89157 -0.00030381)
(-0.0681422 1.66458 -0.000146752)
(1.38305 0.922949 -0.00142847)
(0.0331378 0.0313413 2.37088e-05)
(0.346994 -0.14262 0.000129235)
(0.348634 -0.141742 0.00055873)
(0.0323978 0.0305953 8.14758e-06)
(0.000643945 0.002425 0.543183)
(0.00049142 0.00125006 0.378406)
(0.000446077 0.00131709 0.339893)
(0.00066239 0.00194337 0.361866)
(-0.0910313 -0.733051 0.00391205)
(1.34738 0.892216 -0.00584007)
(1.33277 0.882506 -0.00577877)
(1.30828 0.86625 -0.00566898)
(1.33139 0.881589 -0.00577417)
(0.396212 1.93897 -0.0106659)
(0.174973 0.756869 -0.00423041)
(0.176886 0.765608 -0.00427513)
(0.41758 2.04446 -0.0112308)
(0.26866 1.58796 -0.00866241)
(0.287288 1.69838 -0.0092238)
(-0.0251485 -0.148591 0.000833256)
(-0.0318744 -0.187516 0.00105214)
(-0.0559958 -0.348416 0.00193824)
(-0.0506956 -0.315619 0.00174621)
(-0.0414247 -0.242946 0.00137262)
(-0.0343863 -0.202054 0.00113549)
(0.252354 2.14795 -0.011551)
(0.239351 2.03636 -0.0110287)
(0.0244377 0.090202 -0.000452658)
(0.0227446 0.0918855 -0.000499292)
(0.0342856 0.139376 -0.000509827)
(0.032481 0.120132 -0.000628794)
(0.00133594 0.00470367 4.58578e-05)
(0.0253157 0.108088 -0.000445546)
(0.0345589 0.149153 -0.000701009)
(0.0200737 0.0889885 -0.000346872)
(0.0404244 0.149695 -0.000799583)
(0.0442618 0.180477 -0.000710042)
(0.0347464 0.128564 -0.000677848)
(0.042414 0.633789 -0.00338018)
(-0.0017006 1.02255 -0.00538505)
(-0.00189944 1.12746 -0.00593499)
(0.0467377 0.698676 -0.00373108)
(-0.0544377 1.34339 -0.0070229)
(1.29875 0.859899 -0.00561868)
(-0.0569266 1.40443 -0.00734453)
(-0.0488671 1.2067 -0.00630724)
(-0.0532282 1.31373 -0.00686892)
(1.29523 0.857562 -0.00560306)
(-0.0019556 1.15597 -0.00608358)
(0.051061 0.764424 -0.00407369)
(-0.00206605 1.21197 -0.00637978)
(0.0480587 0.718906 -0.00381011)
(0.225471 1.33372 -0.00699906)
(0.40988 2.549 -0.0159984)
(0.23633 1.57502 -0.00857236)
(0.24634 1.45484 -0.0080157)
(0.403031 2.51433 -0.0135951)
(0.375714 2.3431 -0.0129422)
(0.195016 1.29664 -0.00843299)
(-0.0815975 -0.599464 0.00282792)
(-0.102481 -0.824795 0.00462874)
(-0.0670584 -0.445325 0.00246496)
(-0.0571561 -0.356281 0.00201156)
(-0.0802714 -0.538301 0.0028849)
(-0.0533366 -0.333222 0.00191876)
(-0.0247753 -0.137841 0.000815316)
(-0.0450386 -0.264669 0.00152758)
(0.00246492 0.00577828 0.000194152)
(-0.04756 -0.280691 0.00165859)
(0.230278 1.03494 -0.00604823)
(0.178744 0.772567 -0.00429012)
(0.237184 1.118 -0.00617607)
(0.176846 0.764587 -0.00425411)
(0.224528 1.01254 -0.00561889)
(0.240234 1.1318 -0.00668435)
(0.366546 1.79206 -0.0100726)
(0.104786 0.409777 -0.00223536)
(0.0889453 0.347747 -0.00192891)
(0.0946566 0.345342 -0.00187505)
(0.0749106 0.273179 -0.00151524)
(0.0864121 0.337874 -0.00188769)
(0.0805548 0.315038 -0.00177574)
(0.0550072 0.198439 -0.00107486)
(0.0423066 0.15253 -0.00084622)
(0.121019 0.280551 -0.00151253)
(0.102447 0.237388 -0.0012396)
(-0.0207274 -0.157156 0.000897687)
(-0.0182685 -0.130708 0.000749862)
(0.0805801 0.412001 -0.00255053)
(0.0852109 0.425449 -0.00230526)
(0.123095 0.65008 -0.0041681)
(-0.0192491 -0.190346 0.000992178)
(-0.0198989 -0.181526 0.00101511)
(-0.0171607 -0.188979 0.000736163)
(-0.0212056 -0.294234 0.0015583)
(0.0765307 0.366372 -0.00214965)
(0.0811068 0.405022 -0.00218519)
(-0.0045752 -0.0192457 0.000156307)
(0.00539902 0.0206868 -8.97419e-07)
(-0.00126581 -0.00563566 9.84393e-05)
(0.0121658 0.0445416 -0.000171977)
(0.0175233 0.644568 -0.00338008)
(-0.00133135 0.844145 -0.00443682)
(0.0266872 0.563685 -0.00303972)
(0.0358697 0.537292 -0.00293763)
(-0.104642 0.994209 -0.0065435)
(-0.0410138 1.01587 -0.00534586)
(1.21054 0.808523 -0.00215189)
(-0.452198 1.47149 -0.00714317)
(-0.0448818 1.10951 -0.00581073)
(-0.139795 1.30046 -0.0066915)
(-0.0120512 -0.0629766 0.000405104)
(-0.00894765 -0.0460271 0.000307389)
(-0.0107334 -0.0549706 0.000361066)
(-0.0102568 -0.0537978 0.000351604)
(-0.0248943 -0.136671 0.000678134)
(0.000926968 0.00230496 0.38584)
(0.0580715 0.39087 -0.00213795)
(0.0913631 0.632985 -0.00356092)
(0.0600062 0.403592 -0.00226367)
(0.12512 0.456771 -0.00243563)
(0.152249 0.556105 -0.00296339)
(0.0721831 0.260568 -0.00138639)
(0.0613392 0.214636 -0.00115193)
(0.0804267 0.281928 -0.00168609)
(0.0883026 0.318955 -0.00171189)
(0.452675 -0.189152 -0.00231222)
(0.209682 0.192576 -0.000240903)
(0.256789 0.238868 -0.00113863)
(0.52386 -0.218526 -0.000533958)
(0.225082 0.975955 -0.00528157)
(0.570104 2.7945 -0.0148059)
(0.231947 1.00579 -0.00536189)
(0.550896 2.70026 -0.0144473)
(-0.0658695 -0.53278 0.000938438)
(-0.00144611 -0.0121976 2.83349e-05)
(-0.00105881 -0.00980903 1.88138e-05)
(0.21593 0.936647 -0.00162773)
(0.651054 3.19323 -0.00690648)
(0.239276 1.03795 -0.0022188)
(-0.061826 -0.44963 0.00244102)
(0.177163 0.779374 -0.000776988)
(0.143999 0.664819 -0.000764888)
(0.177259 0.779864 -0.000896939)
(0.143978 0.664653 -0.000668831)
(0.0613627 0.224764 -0.000217154)
(0.0608802 0.223057 -0.000187098)
(-0.0330443 -0.242466 0.000271621)
(0.162996 0.806988 -0.000927654)
(0.0640532 0.336964 -0.000387193)
(0.0320804 0.116201 -0.000108552)
(0.0308412 0.111745 -9.03264e-05)
(1.38828 0.920285 -0.000448587)
(0.0181617 0.0170321 -1.18051e-05)
(0.352757 -0.146422 1.05009e-05)
(0.0195026 0.018288 -1.43767e-05)
(0.344006 -0.142725 2.20586e-06)
(-0.0217287 -0.137161 0.000729076)
(-0.0242809 -0.152886 0.000820587)
(-0.0409403 -0.255516 0.00140439)
(-0.0959201 -0.772061 0.0041519)
(-0.0359254 -0.224625 0.00122929)
(0.183559 0.795148 -0.00441886)
(0.195465 0.847489 -0.00469559)
(0.10111 0.442652 -0.00236536)
(0.075671 0.347443 -0.00185044)
(0.104674 0.458373 -0.00245216)
(0.072301 0.331832 -0.00176339)
(0.0421488 0.192144 -0.000975396)
(0.0668488 0.291524 -0.00150939)
(0.0737465 0.321963 -0.00168446)
(0.0480105 0.219343 -0.00113288)
(0.057773 0.211372 -0.00122565)
(0.0561566 0.205322 -0.00119088)
(0.0616058 0.224709 -0.00127994)
(0.0578141 0.210974 -0.00121272)
(0.0130544 0.0665895 -0.00033142)
(0.0663901 0.325729 -0.00171321)
(-0.0691946 -0.502882 0.00275792)
(0.0233446 0.111543 -0.000506245)
(-0.00801634 -0.045038 0.000298256)
(0.0304223 0.146863 -0.000711456)
(0.0313476 0.11343 -0.000663804)
(0.0299758 0.108383 -0.000634512)
(0.0332238 0.119798 -0.00068503)
(0.03068 0.110677 -0.000640227)
(1.31079 0.867889 -0.00567641)
(1.27766 0.84596 -0.00545527)
(0.126581 0.119243 -0.000745216)
(0.36265 -0.150556 0.000494328)
(0.372363 -0.154587 0.000509341)
(0.114768 0.108103 -0.000679413)
(0.472819 -0.19605 0.000594249)
(0.216245 0.203679 -0.0012382)
(0.202195 0.190509 -0.00116494)
(0.453209 -0.188024 0.000585006)
(0.000138144 -0.00855388 2.00603e-05)
(6.01147e-06 -0.0181456 5.53171e-05)
(-0.0527184 -0.51845 0.001595)
(-0.000152242 -0.0296956 0.000109557)
(-0.000147109 -0.0293181 8.97692e-05)
(-0.0688432 -0.556258 0.00172066)
(-0.0546605 -0.537198 0.0023084)
(-0.000105615 -0.0263361 0.000124834)
(-0.000149098 -0.0294877 0.000128323)
(-0.0726236 -0.586285 0.00249826)
(-0.0730369 -0.589573 0.00254595)
(-7.35144e-05 -0.0239307 0.000127748)
(-0.0580234 -0.569854 0.00284587)
(-0.000247137 -0.0367109 0.000186135)
(-0.0801951 -0.64661 0.00324501)
(1.36837 0.906265 -0.00578088)
(1.3657 0.904466 -0.00582536)
(1.36215 0.902075 -0.00585811)
(1.36738 0.905574 -0.0058387)
(0.201547 0.87422 -0.00473899)
(0.522992 2.56364 -0.0138563)
(0.540527 2.64957 -0.0142054)
(0.190392 0.825746 -0.00452004)
(0.178999 0.775 -0.00432046)
(0.23565 1.06361 -0.00589149)
(0.266235 1.2562 -0.00689928)
(0.439032 2.15004 -0.011774)
(0.180519 0.781705 -0.00435296)
(0.243084 1.09755 -0.00605991)
(0.255597 1.20568 -0.00664284)
(0.43156 2.11326 -0.0115916)
(1.39095 0.922082 -0.00251887)
(1.39127 0.922323 -0.0019967)
(1.3868 0.919339 -0.00134612)
(1.39043 0.921769 -0.00191463)
(0.432557 2.56431 -0.0032508)
(0.487714 2.89159 -0.00475715)
(-0.00074316 -0.00787627 1.07859e-05)
(-0.0657323 -0.531727 0.000866813)
(-0.000946241 -0.00911507 1.62859e-05)
(0.0217206 0.122838 -0.000263757)
(0.0221241 0.125185 -0.000224121)
(0.0224134 0.126866 -0.000161637)
(0.022235 0.125833 -0.000209314)
(0.238258 1.03379 -0.00124233)
(0.224061 0.971901 -0.00158768)
(0.670411 3.28839 -0.00537531)
(-0.0561174 -0.372961 0.00203626)
(-0.0447942 -0.27926 0.00153832)
(-0.0653446 -0.475005 0.0025885)
(-0.0468111 -0.291685 0.00160874)
(-0.0608009 -0.403789 0.00221315)
(0.499576 4.27969 -0.00431407)
(0.507998 4.35151 -0.00358679)
(0.0834976 0.310482 -0.000196448)
(0.107961 0.443037 0.000277249)
(0.108058 0.443468 -0.000966334)
(0.0834099 0.310191 -0.000267691)
(0.140383 0.647328 -0.000504811)
(0.175558 0.772103 -0.00054267)
(0.176767 0.777568 -0.000662087)
(0.143454 0.662047 -0.000571283)
(0.108048 0.443435 0.000142907)
(0.0833409 0.309973 -0.000363579)
(0.108018 0.443331 -0.00109939)
(0.0833897 0.310128 -0.00029427)
(0.0625281 0.946282 -0.000538251)
(-0.00244258 1.07776 -0.000621687)
(-0.00239498 0.976751 -0.000746812)
(0.0661679 1.0024 -0.00082411)
(-0.0524848 1.27744 -0.00106466)
(1.38551 0.918447 -0.000969627)
(-0.0617753 1.50375 -0.00161225)
(-0.0546531 1.33203 -0.000733638)
(-0.0494349 1.20335 -0.000916635)
(1.38584 0.918649 -0.000853882)
(-0.00248935 1.05241 -0.000864264)
(0.0731089 1.10515 -0.00125508)
(-0.00299476 1.32273 -0.00142099)
(0.0682235 1.0334 -0.000940027)
(0.285927 1.29358 -0.000845287)
(0.211324 0.917141 -0.000722234)
(0.640172 3.14083 -0.00293078)
(0.377059 1.7826 -0.0019144)
(0.321998 1.52248 -0.00098537)
(0.625238 3.06748 -0.00251659)
(0.217569 0.944255 -0.0008666)
(0.328203 1.48464 -0.00156756)
(0.0762067 0.299256 -0.00020235)
(0.0738385 0.28991 -0.000247252)
(0.0748447 0.274274 -0.000183068)
(0.0620333 0.227312 -0.000178149)
(0.07312 0.287081 -0.000261393)
(0.690927 4.32289 -0.00339914)
(0.415997 2.46645 -0.00210788)
(0.695348 4.35251 -0.00373401)
(0.43824 2.93192 -0.00296941)
(0.457302 3.05883 -0.00260408)
(0.415126 2.46156 -0.00241035)
(-0.0311966 -0.229613 0.000171473)
(-0.0195638 -0.132567 0.000150536)
(-0.000558123 -0.00684754 7.82135e-06)
(-0.0188163 -0.128264 9.6017e-05)
(-0.000527274 -0.00683927 6.9377e-06)
(0.0633182 0.332541 -0.00023921)
(0.160585 0.794147 -0.000571331)
(0.162989 0.806601 -0.000695525)
(0.0483935 0.26082 -0.000299461)
(0.0225633 0.127635 -0.000127982)
(0.0484058 0.260355 -0.000189816)
(0.0225879 0.127609 -0.000109762)
(0.0364519 0.132102 -8.71878e-05)
(0.0312144 0.113123 -8.55943e-05)
(0.0655369 0.239003 -0.00134965)
(0.0679762 0.247882 -0.00139254)
(0.0318305 0.111266 -0.000634463)
(0.0358987 0.129423 -0.000732399)
(0.03769 0.131752 -0.000735957)
(0.037575 0.135461 -0.000761927)
(0.273382 0.802778 -0.000408382)
(0.274128 0.804812 -0.000239331)
(0.283982 0.659974 -0.000264054)
(0.284314 0.660708 -0.000214697)
(-0.201123 1.86287 -0.000386118)
(-0.0638926 1.55956 -0.000493119)
(1.3886 0.920854 -0.000431606)
(-0.819791 2.66537 -0.0010338)
(-0.0612671 1.49467 -0.000591804)
(-0.18621 1.72306 -0.000753632)
(0.0782744 0.286966 -0.000142195)
(0.0769808 0.282304 -0.000106235)
(0.0412341 0.14953 -7.52512e-05)
(0.0318044 0.111785 -6.77746e-05)
(0.0340156 0.119674 -2.99702e-05)
(0.0406288 0.147386 -5.72617e-05)
(0.421856 2.4972 -0.0133107)
(0.382706 2.26511 -0.0121723)
(-0.000869492 -0.0080647 5.55062e-05)
(-0.00375181 -0.0247517 0.0001459)
(-0.0286469 -0.179783 0.000975067)
(-0.0254054 -0.159815 0.000860027)
(-0.00868722 -0.0533195 0.000302911)
(-0.00503673 -0.032191 0.000186277)
(1.34627 0.89149 -0.00583429)
(1.35613 0.898045 -0.0058631)
(1.36309 0.902694 -0.00586495)
(1.35689 0.898554 -0.00586336)
(-0.0227213 -0.134543 0.000754869)
(-0.0169732 -0.101279 0.000568776)
(0.345859 2.04591 -0.0110205)
(0.371333 2.19752 -0.0118228)
(-0.0944608 -0.760418 0.00408212)
(-0.0300911 -0.18868 0.00102529)
(-0.0341827 -0.213889 0.00116877)
(-0.0103443 -0.0629109 0.000355624)
(-0.0149523 -0.0895827 0.000503899)
(0.199921 0.866944 -0.00478063)
(0.51207 2.50997 -0.0136116)
(0.191898 0.832216 -0.00456259)
(0.4772 2.33823 -0.0127414)
(0.281819 2.39968 -0.0129184)
(0.290084 2.47047 -0.0133071)
(0.0646436 0.264315 -0.00107925)
(0.0525022 0.194654 -0.00105443)
(0.0553095 0.205103 -0.00111258)
(0.0607374 0.248247 -0.00164583)
(0.0961559 0.420805 -0.00224358)
(0.0637999 0.29247 -0.00154485)
(0.0917688 0.401459 -0.00213449)
(0.0678306 0.311129 -0.00164953)
(0.0585984 0.217348 -0.00118032)
(0.0562442 0.208583 -0.00113238)
(0.0694131 0.283937 -0.00116298)
(-0.00239452 1.37333 -0.00722261)
(0.0573053 0.858469 -0.00456798)
(0.0585974 0.877949 -0.00466906)
(-0.00233825 1.34666 -0.00708418)
(-0.0641419 1.58109 -0.0082592)
(1.34342 0.889579 -0.00582444)
(-0.0648652 1.59865 -0.00834692)
(-0.00241406 1.38251 -0.00726724)
(0.0600526 0.899927 -0.00477982)
(-0.00244731 1.39535 -0.00733038)
(0.0590253 0.884406 -0.00470203)
(-0.0637106 1.57055 -0.00820791)
(1.34034 0.887533 -0.00581155)
(-0.0625169 1.54137 -0.00805712)
(0.315586 2.68843 -0.0144229)
(0.309761 2.63859 -0.0141674)
(0.0422098 0.156342 -0.00083774)
(0.0464715 0.172206 -0.000927833)
(0.054281 0.22169 -0.00146201)
(0.0513011 0.190183 -0.0010293)
(0.0589384 0.240848 -0.000977755)
(0.0479062 0.177545 -0.000957753)
(0.0803857 0.351248 -0.00185187)
(0.0584534 0.267718 -0.0014066)
(0.0855969 0.37424 -0.00198216)
(0.0537376 0.245877 -0.00128308)
(-0.0576077 1.42105 -0.00743365)
(-0.0598599 1.47634 -0.00771927)
(1.31901 0.873368 -0.00571755)
(0.0518985 0.777069 -0.00414204)
(-0.00210129 1.22798 -0.00646616)
(-0.00220825 1.28327 -0.0067534)
(0.0542198 0.811986 -0.00432582)
(-0.00224074 1.29957 -0.00683886)
(0.0567487 0.85006 -0.00452528)
(0.0550166 0.823978 -0.00438738)
(-0.00231292 1.33512 -0.00702648)
(-0.0605309 1.49278 -0.00780508)
(1.32397 0.87666 -0.00573798)
(-0.0620332 1.52957 -0.00799863)
(0.0754246 0.29549 -0.00168018)
(0.0755516 0.295858 -0.00168352)
(0.0555638 0.202974 -0.0011759)
(0.0557823 0.203908 -0.00118288)
(0.0760072 0.29795 -0.0016921)
(0.240251 1.13274 -0.00626153)
(0.403131 1.97318 -0.0108788)
(0.225808 1.01853 -0.00565612)
(0.17504 0.75733 -0.00423969)
(0.176067 0.761931 -0.0042602)
(0.232817 1.05068 -0.00582466)
(0.410925 2.01167 -0.0110555)
(0.25154 1.18642 -0.00654395)
(0.0768238 0.300607 -0.00170668)
(0.0764682 0.299264 -0.00170049)
(0.0755431 0.295779 -0.00168305)
(0.0556136 0.20311 -0.00117608)
(0.0570371 0.208179 -0.00119948)
(0.262261 1.74776 -0.00947297)
(0.41773 2.60642 -0.0141565)
(0.274767 1.62411 -0.00883736)
(0.281353 1.66318 -0.00904614)
(0.448264 2.7974 -0.0151614)
(0.438615 2.73713 -0.0148476)
(0.268971 1.79263 -0.00969947)
(-0.00265131 -0.0171452 0.000123404)
(-0.0272261 -0.160617 0.000900544)
(0.0501751 0.245129 -0.0012657)
(0.00504854 0.0242306 -9.55752e-05)
(-0.0296461 -0.174622 0.000979257)
(-0.0102367 -0.0583987 0.000354127)
(-0.0663238 -0.440281 0.00243024)
(-0.054304 -0.337897 0.00187603)
(-0.0664817 -0.483197 0.00263769)
(-0.0525563 -0.327092 0.00181128)
(-0.0623747 -0.414156 0.00227415)
(0.459365 2.86687 -0.0155247)
(0.468435 2.92364 -0.0158167)
(0.292083 1.94719 -0.0105005)
(0.286264 1.90828 -0.0102998)
(-0.0219714 -0.122375 0.00072008)
(-0.0390729 -0.229233 0.00129102)
(0.0435749 0.212317 -0.00108165)
(0.00177441 0.00690463 1.38638e-06)
(0.0373881 0.181542 -0.000909366)
(-0.036708 -0.215506 0.00121118)
(-0.0132283 -0.0746717 0.000445761)
(0.0292795 0.105752 -0.000618127)
(0.0296448 0.107158 -0.00062743)
(0.0292866 0.10575 -0.000617591)
(0.030159 0.108821 -0.000631414)
(0.117318 0.343529 -0.00184352)
(0.143083 0.419192 -0.00228443)
(0.190179 0.44121 -0.00246864)
(0.184884 0.428913 -0.00239831)
(0.15766 0.365701 -0.00203291)
(0.165765 0.38453 -0.00214522)
(0.15004 0.439631 -0.0024026)
(-0.596457 1.94236 -0.00970331)
(1.30541 0.864314 -0.00564792)
(-0.0561985 1.38658 -0.00725104)
(-0.167705 1.55914 -0.00806275)
(-0.569052 1.85329 -0.00931851)
(-0.499908 1.62752 -0.00803561)
(-0.51783 1.68621 -0.0084299)
(-0.145047 1.34924 -0.00697404)
(-0.0503772 1.24378 -0.00649877)
(1.28798 0.852732 -0.00554736)
(-0.551927 1.79765 -0.00898586)
(0.0868835 0.316909 -0.0017288)
(0.0800704 0.292036 -0.00160942)
(0.139677 0.131593 -0.000818105)
(0.397866 -0.165176 0.000547774)
(0.384365 -0.15957 0.000527709)
(0.153262 0.144404 -0.000891656)
(0.0536963 0.187835 -0.0010152)
(0.0501506 0.180865 -0.000984691)
(0.0456619 0.164651 -0.000906583)
(0.040411 0.141272 -0.000782831)
(0.183788 0.173182 -0.00106205)
(0.414427 -0.172042 0.000561536)
(0.431878 -0.17925 0.000577561)
(0.168758 0.159016 -0.000976073)
(0.636936 3.12372 -0.0071405)
(0.242421 1.05146 -0.00238043)
(0.224997 0.975681 -0.0025674)
(0.608781 2.98476 -0.00777771)
(0.243266 1.05488 -0.0042882)
(0.642675 3.15131 -0.011966)
(0.221383 0.960257 -0.0036566)
(0.654321 3.20802 -0.012987)
(0.22848 0.990736 -0.00490079)
(0.607453 2.97795 -0.0142512)
(0.248235 1.07646 -0.00517163)
(0.604886 2.96508 -0.0145605)
(-0.0661861 -0.535239 0.00107553)
(-0.0336859 -0.246907 0.000529103)
(-0.0478194 -0.348618 0.00182368)
(-0.0605031 -0.440089 0.00238588)
(-0.0986562 -0.793888 0.00428225)
(-0.0532303 -0.523388 0.00179874)
(-0.00539807 -0.162868 0.000598042)
(-0.0054052 -0.163078 0.000549519)
(-9.9259e-06 -0.0192908 7.1596e-05)
(-4.08311e-06 -0.018878 5.87915e-05)
(-0.00167913 -0.0136342 3.30678e-05)
(-0.0673631 -0.54453 0.00140443)
(-0.00224129 -0.0170992 4.68531e-05)
(-0.0698805 -0.564484 0.00195059)
(-0.00525553 -0.0356735 0.000136581)