/*--------------------------------*- C++ -*----------------------------------*\
| =========                 |                                                 |
| \\      /  F ield         | OpenFOAM: The Open Source CFD Toolbox           |
|  \\    /   O peration     | Version:  2306                                  |
|   \\  /    A nd           | Website:  www.openfoam.com                      |
|    \\/     M anipulation  |                                                 |
\*---------------------------------------------------------------------------*/
FoamFile
{
    version     2.0;
    format      ascii;
    arch        "LSB;label=32;scalar=64";
    class       volScalarField;
    location    "1.3";
    object      p;
}
// * * * * * * * * * * * * * * * * * * * * * * * * * * * * * * * * * * * * * //

dimensions      [0 2 -2 0 0 0 0];

internalField   nonuniform List<scalar> 
111542
(
60.6898
62.0324
65.2238
70.4226
77.694
87.2358
99.1904
113.568
129.852
146.599
161.239
169.773
168.203
155.444
134.665
111.624
90.2605
71.9817
56.8418
44.6431
34.9894
27.5617
21.973
17.7198
14.484
12.0044
10.0069
8.45926
7.31127
6.43514
5.74699
5.18937
4.77296
4.42552
4.09354
3.73335
3.28996
2.75667
2.03003
1.0133
59.5677
60.8692
64.0255
69.1584
76.4147
86.097
98.56
114.035
132.334
152.363
171.399
183.929
182.395
165.617
139.517
112.76
89.4549
70.1739
54.6026
42.3344
32.9011
25.7744
20.4275
16.4826
13.5197
11.2226
9.42238
8.03577
6.97599
6.15092
5.49625
4.97104
4.54932
4.18939
3.84978
3.49103
3.06823
2.53486
1.81835
0.857219
57.3481
58.5802
61.5882
66.5291
73.6602
83.4775
96.6759
114.044
136.226
163.042
191.136
211.884
211.219
185.275
148.877
115.773
88.7834
67.4724
51.0203
38.573
29.379
22.8709
18.166
14.6945
11.872
9.58404
7.85719
6.60027
5.67583
4.98296
4.46026
4.06473
3.75984
3.51076
3.28076
3.03183
2.71824
2.28256
1.6492
0.736327
54.0916
55.1927
57.8975
62.4097
69.0998
78.6825
92.2912
111.608
139.024
177.771
212.524
254.49
259.428
218.055
165.622
125.189
92.5314
67.8342
49.766
36.6294
23.2645
17.1655
14.643
13.1299
11.1165
9.06886
7.43894
6.21429
5.26492
4.51502
3.928
3.47219
3.11613
2.82767
2.57637
2.32899
2.03946
1.6445
1.04739
0.118525
49.9201
50.8074
53.0021
56.7259
62.406
70.8774
83.5737
102.905
132.888
177.466
253.934
339.441
362.438
254.291
169.562
121.015
82.1741
56.0442
38.7941
27.7105
20.757
6.35294
5.47901
5.88126
5.20749
4.39687
3.81955
3.39228
3.03734
2.74406
2.51302
2.33418
2.19478
2.07897
1.97298
1.85925
1.70602
1.45815
0.995456
0.0183108
45.044
45.6274
47.0825
49.5936
53.5286
59.6166
69.1826
84.6756
110.854
165.376
258.689
452.705
616.672
244.456
171.123
113.036
66.3768
40.4287
25.0994
15.8398
14.2901
12.5213
12.1922
7.74812
4.63875
3.14169
2.32388
1.73126
1.28224
0.968826
0.764928
0.63809
0.564181
0.526729
0.512878
0.510246
0.504517
0.482805
0.452732
0.550453
39.7719
39.977
40.5041
41.438
42.9558
45.3951
49.3404
55.7784
66.409
105.683
181.124
410.757
1945.14
-423.236
208.935
76.7472
31.0059
16.2058
8.08727
-1.29967
-5.89417
15.793
15.2188
9.53205
5.98982
4.49416
3.7328
3.15592
2.69482
2.35491
2.11288
1.93784
1.81016
1.71619
1.64676
1.59382
1.54224
1.48286
1.41077
1.36571
34.5034
34.2966
33.8132
33.0112
31.8211
30.0737
27.3711
22.773
13.8995
16.074
-1.10723
-163.337
-1006.42
-1043.7
-312.267
-101.779
-46.2511
-25.6303
-16.3745
-10.0817
-3.46371
-7.7114
-5.82931
-4.27977
-3.50551
-2.68793
-1.86457
-1.19285
-0.667799
-0.235548
0.133388
0.449602
0.719767
0.948239
1.1371
1.28359
1.37128
1.36806
1.20577
0.75195
29.6321
29.0641
27.6308
25.2042
21.5221
16.0359
7.73511
-5.26105
-26.5678
-49.8552
-123.624
-268.487
-478.822
-506.533
-320.145
-174.883
-100.068
-60.7132
-38.7009
-24.7826
-14.9249
-8.33392
-4.26814
-1.416
0.250048
1.25871
1.96167
2.45077
2.76833
2.96631
3.08662
3.15396
3.18139
3.17458
3.13225
3.04622
2.89165
2.61919
2.13323
1.24315
25.6167
24.7248
22.5149
18.7882
13.1736
4.95707
-7.05151
-24.8047
-51.5677
-92.9365
-150.803
-223.525
-288.716
-296.343
-238.205
-164.793
-109.391
-73.8937
-50.9104
-35.008
-23.7746
-16.3509
-11.3883
-7.87627
-5.41361
-3.67142
-2.36398
-1.34449
-0.545377
0.0838686
0.585996
0.990726
1.31472
1.56524
1.73983
1.83043
1.81294
1.64416
1.2632
0.621067
22.7507
21.6356
18.8897
14.2888
7.42222
-2.42231
-16.3316
-35.7769
-62.6013
-98.6408
-143.823
-192.9
-231.072
-237.704
-206.822
-157.723
-113.226
-80.8197
-58.1103
-41.5953
-29.3502
-20.4188
-13.8965
-9.12062
-5.63808
-3.1092
-1.25725
0.111234
1.12032
1.85766
2.39085
2.76962
3.02683
3.18035
3.22826
3.1804
3.0126
2.67795
2.10426
1.16331
21.2611
20.0432
17.0126
11.9977
4.51495
-6.05404
-20.7084
-40.5691
-66.7659
-99.6197
-137.59
-175.24
-202.623
-208.257
-188.117
-151.862
-114.296
-83.8812
-61.3294
-44.532
-31.8675
-22.4299
-15.5278
-10.5187
-6.92755
-4.3375
-2.45061
-1.05958
-0.02446
0.749638
1.3301
1.76426
2.08412
2.31141
2.39035
2.39492
2.28248
2.00213
1.50406
0.737154
60.146
61.4413
64.5695
69.619
76.6707
85.9133
97.5192
111.452
127.195
143.387
157.535
165.702
163.936
151.364
131.074
108.63
87.902
70.1645
55.4683
43.5929
34.2218
26.9893
21.5003
17.3549
14.19
11.7188
9.76288
8.24673
7.09737
6.22184
5.54586
5.01865
4.60768
4.26671
3.95134
3.61986
3.22689
2.72377
2.0305
1.04703
59.0339
60.303
63.3763
68.3609
75.3999
84.7866
96.8673
111.858
129.579
148.992
167.435
179.641
177.71
161.154
135.68
109.682
87.0889
68.3922
53.2763
41.3516
32.1795
25.2283
19.9995
16.146
13.2413
10.9683
9.18277
7.80451
6.74739
5.92782
5.2848
4.77656
4.37005
4.02785
3.71283
3.38635
3.00522
2.5149
1.84344
0.911371
56.8405
58.0433
60.9662
65.7599
72.6725
82.1838
94.9678
111.793
133.298
159.33
186.597
206.561
205.884
180.329
144.765
112.62
86.4569
65.7836
49.8034
37.7107
28.8104
22.4925
17.8742
14.4288
11.6171
9.34157
7.63148
6.39414
5.48904
4.81435
4.30929
3.93081
3.64241
3.41006
3.20099
2.97951
2.70333
2.31316
1.72535
0.825512
53.6249
54.6991
57.3231
61.6935
68.1697
77.4449
90.6224
109.348
135.987
173.759
208.951
250.131
254.715
213.516
162.093
122.619
90.678
66.4852
48.768
35.8899
22.6831
17.0084
14.5736
12.9485
10.7825
8.64003
6.98258
5.77089
4.85355
4.14502
3.60352
3.19295
2.88063
2.63471
2.42735
2.22869
1.99857
1.67398
1.15024
0.257212
49.5093
50.3725
52.4961
56.0933
61.58
69.7696
82.0642
100.836
130.064
174.656
250.182
334.557
356.484
248.563
165.762
118.827
80.7264
54.9928
37.9591
26.9788
19.993
6.7075
5.74858
6.04934
5.2326
4.30461
3.66649
3.20954
2.83471
2.52548
2.28121
2.09093
1.94352
1.82578
1.72722
1.63609
1.52898
1.35399
0.986678
0.0990751
44.7026
45.2661
46.6654
49.0765
52.8592
58.7275
67.9857
83.0624
108.707
163.197
256.289
448.921
610.852
238.007
166.529
111.626
65.5628
39.795
24.6736
15.6343
13.261
13.0703
11.3394
6.5088
3.39317
1.99834
1.33156
0.900948
0.598272
0.405779
0.298026
0.246223
0.232761
0.246242
0.28112
0.333506
0.400907
0.482445
0.587292
0.78438
39.5
39.6997
40.1919
41.0615
42.4858
44.7991
48.5856
54.8492
65.3576
104.687
180.374
410.99
1935.2
196.479
82.4438
32.6725
16.3325
7.73682
-2.42637
-8.94833
13.9397
13.7138
8.26505
5.03174
3.75144
3.0897
2.54775
2.09065
1.73816
1.47611
1.28066
1.13815
1.03835
0.976618
0.949908
0.954701
0.990863
1.06122
1.16799
34.3045
34.1086
33.6126
32.7865
31.5695
29.8028
27.1102
22.605
14.0259
16.401
0.0494343
-158.587
-986.867
-1031.83
-306.846
-99.1896
-44.7899
-25.1233
-16.4416
-10.3879
-3.51109
-8.69412
-7.01308
-5.46946
-4.49571
-3.47804
-2.52325
-1.76231
-1.16906
-0.684942
-0.277847
0.0670763
0.360967
0.611287
0.825382
1.00665
1.14757
1.22229
1.16229
0.797422
29.5261
28.9591
27.5323
25.1212
21.4745
16.0642
7.91781
-4.78061
-25.5404
-48.6321
-120.857
-263.428
-470.977
-496.726
-314.367
-171.21
-97.8024
-59.5205
-38.1719
-24.6077
-14.8514
-8.83939
-4.99361
-2.15984
-0.394274
0.708101
1.46313
1.97685
2.30476
2.50376
2.61922
2.67963
2.7012
2.69257
2.65602
2.58779
2.46811
2.25248
1.85034
1.08122
25.5706
24.6879
22.5065
18.8262
13.2933
5.22164
-6.5394
-23.8793
-49.9722
-90.306
-146.745
-217.71
-281.52
-288.637
-231.64
-160.094
-106.414
-72.1912
-50.0341
-34.6525
-23.7646
-16.5889
-11.7898
-8.34021
-5.88315
-4.12532
-2.79733
-1.75834
-0.943269
-0.302536
0.207402
0.617562
0.946376
1.20293
1.3883
1.49684
1.50809
1.38247
1.06356
0.508768
22.7543
21.6547
18.9462
14.4085
7.6568
-2.00448
-15.6238
-34.6266
-60.7964
-95.9237
-139.926
-187.666
-224.799
-231.255
-201.063
-153.362
-110.27
-78.98
-57.0475
-41.0565
-29.1707
-20.4879
-14.1271
-9.45201
-6.0233
-3.51733
-1.6718
-0.303488
0.706164
1.44284
1.97415
2.35041
2.60529
2.75864
2.81686
2.78145
2.63387
2.33362
1.81659
0.976796
21.2954
20.0837
17.1078
12.1472
4.80995
-5.56506
-19.9153
-39.3372
-64.8796
-96.921
-133.904
-170.525
-197.127
-202.633
-183.067
-147.768
-111.337
-81.949
-60.1536
-43.8883
-31.5875
-22.4015
-15.6706
-10.7874
-7.2535
-4.68939
-2.81431
-1.42726
-0.392536
0.382068
0.962685
1.3961
1.71301
1.92918
2.04123
2.05826
1.95953
1.70661
1.25777
0.587141
59.1113
60.339
63.3
68.06
74.6927
83.3707
94.2506
107.276
121.953
137.009
150.055
157.408
155.408
143.245
123.907
102.673
83.1427
66.4399
52.5839
41.3582
32.4721
25.5599
20.2669
16.2735
13.2391
10.8748
9.01515
7.57213
6.47024
5.63065
4.98602
4.48655
4.0936
3.77105
3.4824
3.18934
2.84964
2.41172
1.80852
0.954753
58.0229
59.2272
62.1302
66.824
73.4385
82.2429
93.5535
107.561
124.091
142.166
159.301
170.358
168.274
152.322
128.107
103.585
82.3349
64.7394
50.4873
39.2157
30.5059
23.796
18.715
15.0297
12.2944
10.1513
8.45461
7.1325
6.10918
5.31175
4.68529
4.19048
3.7947
3.46658
3.17491
2.88563
2.55912
2.14369
1.57394
0.782768
55.8795
57.0196
59.7736
64.2772
70.7587
79.6617
91.6116
107.327
127.419
151.774
177.309
196.011
194.8
170.193
136.501
106.276
81.6904
62.2353
47.1654
35.7388
27.3241
21.0852
16.4727
13.1635
10.5467
8.43472
6.83532
5.66871
4.80936
4.16549
3.68251
3.32161
3.04943
2.83727
2.65785
2.48218
2.27345
1.97735
1.5101
0.747445
52.7416
53.7568
56.22
60.3106
66.3624
75.0217
87.3222
104.821
129.791
165.382
200.088
239.392
243.237
203.076
153.971
116.652
86.2761
63.2336
46.3378
34.0092
20.7267
15.0271
12.984
11.6449
9.58884
7.48497
5.8378
4.61725
3.68179
2.95569
2.40102
1.9846
1.67602
1.44767
1.27761
1.14344
1.01422
0.835828
0.509114
-0.130565
48.7328
49.5416
51.5226
54.8691
59.9697
67.5887
79.053
96.6276
124.172
167.7
240.537
321.966
342.253
236.414
158.084
113.984
77.1556
52.1999
35.6835
24.8955
17.1504
1.88131
2.63757
4.10484
3.64005
2.80728
2.22675
1.80752
1.45269
1.15722
0.926628
0.754764
0.635263
0.558309
0.520484
0.519054
0.54694
0.570951
0.477246
-0.128502
44.0651
44.5764
45.8626
48.075
51.5514
56.9691
65.5771
79.7239
104.075
157.474
248.934
437.821
594.292
223.597
161.766
110.228
63.9208
37.9719
22.8227
13.4657
3.65817
7.57259
6.95356
2.87963
-0.0720477
-1.50228
-2.20037
-2.63526
-2.92861
-3.104
-3.18567
-3.20331
-3.16228
-3.0728
-2.93403
-2.73685
-2.46029
-2.06518
-1.46352
-0.388566
38.9799
39.1699
39.5909
40.3323
41.5671
43.6178
47.0525
52.8864
62.9664
101.828
177.381
409.099
1910.05
197.73
78.7927
30.0104
14.2532
6.04097
-3.74701
-8.11858
15.0095
12.8303
6.21784
2.49869
0.962406
0.163374
-0.417202
-0.848935
-1.14413
-1.3327
-1.44496
-1.49895
-1.49605
-1.43603
-1.30866
-1.0919
-0.74763
-0.191837
0.764293
33.9452
33.7473
33.2249
32.3522
31.0796
29.2648
26.5717
22.2097
14.1413
16.9424
2.52944
-148.58
-963.513
-1010.62
-296.42
-92.9257
-41.8497
-24.27
-16.5796
-10.7898
-1.86272
-7.49452
-7.24954
-6.58617
-5.78546
-4.7728
-3.81949
-3.05102
-2.44051
-1.93931
-1.51656
-1.15432
-0.840145
-0.561218
-0.299683
-0.0424307
0.221282
0.485423
0.69929
0.65943
29.3149
28.7556
27.3457
24.9665
21.3891
16.1255
8.27655
-3.84125
-23.5039
-45.655
-114.381
-251.344
-452.158
-477.338
-300.164
-162.126
-92.618
-56.9056
-37.0355
-24.2347
-14.6726
-9.11379
-5.68208
-3.125
-1.48504
-0.46102
0.242486
0.735055
1.06561
1.28109
1.42293
1.51758
1.58096
1.62236
1.65116
1.66938
1.6676
1.61261
1.41989
0.891967
25.4826
24.6204
22.4887
18.9004
13.533
5.74732
-5.52476
-22.0421
-46.7801
-84.9421
-138.349
-205.611
-266.297
-273.013
-218.738
-151.048
-100.748
-68.9143
-48.2758
-33.8581
-23.6156
-16.8898
-12.1725
-8.7846
-6.43
-4.75494
-3.46607
-2.43515
-1.61257
-0.95739
-0.428768
0.00285682
0.356806
0.641455
0.864498
1.02411
1.10626
1.07765
0.881587
0.448936
22.7577
21.6849
19.0502
14.6458
8.11963
-1.17748
-14.2185
-32.3298
-57.1739
-90.4298
-132.022
-177.123
-212.255
-218.374
-189.817
-144.848
-104.461
-75.2659
-54.7817
-39.7797
-28.5836
-20.3625
-14.2329
-9.71724
-6.43028
-4.03344
-2.25771
-0.929117
0.0601998
0.789485
1.32303
1.70914
1.98112
2.15883
2.25349
2.26526
2.18014
1.96409
1.55646
0.845754
21.3454
20.1651
17.2748
12.4644
5.38234
-4.59515
-18.3327
-36.8498
-61.1087
-91.46
-126.415
-160.975
-186.067
-191.29
-172.886
-139.704
-105.555
-78.0833
-57.6895
-42.414
-30.8132
-22.1095
-15.6799
-10.9777
-7.55921
-5.07797
-3.2602
-1.90693
-0.888232
-0.117657
0.466866
0.910134
1.24201
1.47866
1.62627
1.68211
1.63206
1.4461
1.08423
0.508261
57.6648
58.7943
61.507
65.853
71.8873
79.7517
89.5679
101.259
114.354
127.682
139.063
145.179
142.866
131.37
113.504
94.0848
76.2994
61.0964
48.4663
38.2085
30.058
23.6566
18.6698
14.8483
11.9386
9.68966
7.93382
6.57381
5.53236
4.7369
4.12659
3.65584
3.28886
2.99439
2.74145
2.49807
2.22808
1.88696
1.41938
0.762823
56.6098
57.7169
60.3716
64.6477
70.6518
78.6117
88.7918
101.338
116.07
132.088
147.162
156.442
154.12
139.203
116.987
94.6915
75.4148
59.4388
46.4776
36.2128
28.2609
21.9733
17.0935
13.5356
10.9258
8.90137
7.2994
6.04824
5.08054
4.32972
3.7445
3.28747
2.92872
2.6405
2.39687
2.17035
1.92827
1.62679
1.20885
0.616381
54.5355
55.5808
58.0894
62.1745
68.0316
76.0451
86.7571
100.791
118.681
140.324
162.935
179.444
177.518
154.668
124.043
96.7476
74.5362
56.946
43.3117
33.0158
25.5962
19.5265
14.6674
11.351
8.97832
7.13281
5.71518
4.65504
3.86079
3.25953
2.80571
2.4676
2.21883
2.03486
1.89692
1.78395
1.66945
1.50786
1.21807
0.651825
51.5051
52.4305
54.6595
58.3445
63.777
71.5241
82.4975
98.0815
120.333
152.164
185.246
221.074
223.786
185.968
140.978
106.98
79.0858
57.9847
42.5259
31.2733
18.9849
13.5209
10.7372
9.05384
7.21406
5.46607
4.09755
3.06943
2.27795
1.66344
1.19288
0.844
0.592594
0.416414
0.307085
0.25498
0.247816
0.250529
0.173634
-0.20512
47.6424
48.3716
50.1438
53.124
57.655
64.415
74.5897
90.2188
114.849
155.826
223.147
298.84
316.802
216.378
145.74
105.19
70.4946
47.2617
31.953
21.9195
14.6988
-2.68068
-0.479074
1.91362
1.90659
1.28376
0.767849
0.334683
-0.0583682
-0.391447
-0.655054
-0.843436
-0.9694
-1.03895
-1.04419
-0.973979
-0.810079
-0.549226
-0.27245
-0.421268
43.1596
43.6039
44.7239
46.6431
49.6617
54.3872
61.945
74.4879
96.3761
146.925
234.254
415.162
563.134
202.157
155.637
104.865
59.0615
33.855
19.3231
10.3048
0.578206
-4.40107
-0.648122
-0.9083
-2.12895
-2.86634
-3.274
-3.59835
-3.88151
-4.10341
-4.25699
-4.35996
-4.4048
-4.39265
-4.30747
-4.11743
-3.7631
-3.13684
-2.0522
-0.232542
38.2673
38.4243
38.7382
39.2903
40.2375
41.869
44.702
49.7007
58.6949
95.8355
169.533
398.827
1866.57
221.48
78.0445
28.4026
11.6568
2.9687
-6.47084
-11.8277
13.96
10.7444
3.98437
0.242766
-1.47373
-2.47276
-3.2073
-3.76052
-4.15662
-4.42689
-4.5931
-4.684
-4.70383
-4.63077
-4.43843
-4.06825
-3.41389
-2.2827
-0.356087
33.4469
33.238
32.6744
31.7321
30.3695
28.4575
25.7055
21.4363
13.9148
16.9764
4.9936
-134.624
-916.338
-961.332
-275.123
-83.2258
-38.7944
-24.3293
-17.8836
-12.4085
-3.1845
-7.43606
-7.59614
-7.1042
-6.34221
-5.43985
-4.60228
-3.91887
-3.37629
-2.93841
-2.57693
-2.26099
-1.99845
-1.76309
-1.52091
-1.24366
-0.895105
-0.439282
0.114069
0.511445
29.0213
28.4701
27.0827
24.7479
21.2633
16.196
8.74907
-2.5637
-20.6461
-41.1522
-104.267
-231.222
-419.132
-442.356
-275.371
-147.847
-85.2408
-53.5301
-35.8118
-24.2363
-15.6333
-11.3276
-7.19136
-4.08914
-2.40241
-1.51444
-0.939745
-0.541546
-0.283818
-0.12567
-0.0259598
0.0428764
0.091837
0.135793
0.190598
0.266821
0.369269
0.487536
0.558898
0.404289
25.3581
24.5239
22.4645
19.0133
13.8785
6.49848
-4.07757
-19.4092
-42.1465
-76.9683
-125.585
-186.812
-242.083
-248.16
-198.832
-137.646
-92.6162
-64.2486
-45.7759
-32.8004
-23.6414
-17.7805
-12.7857
-9.13005
-6.79567
-5.232
-4.0321
-3.06195
-2.28544
-1.66671
-1.16609
-0.753968
-0.413208
-0.131742
0.103252
0.294992
0.43828
0.512036
0.46759
0.233037
22.7544
21.7228
19.1947
14.9848
8.78134
0.00695524
-12.203
-29.0195
-51.9101
-82.3565
-120.26
-161.241
-193.16
-198.74
-172.893
-132.337
-96.0905
-69.9278
-51.4904
-37.907
-27.7446
-20.249
-14.4223
-10.0224
-6.83901
-4.54891
-2.86331
-1.60566
-0.672973
0.0108601
0.50909
0.869932
1.12653
1.30026
1.40587
1.44637
1.41255
1.27927
0.998458
0.493634
21.4093
20.2741
17.5078
12.9211
6.20376
-3.20153
-16.0624
-33.27
-55.6577
-83.499
-115.403
-146.834
-169.611
-174.387
-157.816
-127.96
-97.2606
-72.5441
-54.1253
-40.2521
-29.6642
-21.6718
-15.6711
-11.1706
-7.85439
-5.45176
-3.70145
-2.40161
-1.42381
-0.685238
-0.126037
0.298091
0.617138
0.849318
1.00387
1.08021
1.0673
0.942783
0.676456
0.253265
55.9113
56.9174
59.3216
63.1555
68.4494
75.302
83.7854
93.7886
104.854
115.931
125.126
129.615
126.869
116.298
100.425
83.3736
67.8026
54.4726
43.3586
34.2942
27.0726
21.393
16.9267
13.4268
10.7153
8.61359
6.97911
5.71851
4.7533
4.01592
3.45224
3.02035
2.68628
2.42445
2.20684
2.0098
1.80209
1.54912
1.20527
0.706332
54.8967
55.8811
58.2271
61.9862
67.2328
74.138
82.8921
93.5689
105.952
119.215
131.473
138.362
135.602
122.18
102.751
83.4175
66.6903
52.7754
41.4417
32.447
25.5138
20.0424
15.7133
12.3909
9.86867
7.90266
6.35115
5.14982
4.22757
3.51912
2.97422
2.55463
2.23264
1.98093
1.78137
1.61058
1.44559
1.25297
0.986278
0.57495
52.9057
53.8307
56.0335
59.599
64.6774
71.5708
80.7
92.5346
107.449
125.269
143.582
156.598
153.811
133.683
107.425
84.1279
65.1124
49.9948
38.2308
29.4307
23.52
18.4687
13.7863
10.3832
8.03961
6.30012
4.96572
3.95225
3.19491
2.62779
2.20043
1.88083
1.64856
1.48155
1.36772
1.29491
1.25156
1.20944
1.10279
0.750407
50.004
50.8156
52.752
55.9309
60.5848
67.1685
76.4092
89.4044
107.79
133.905
163.749
193.635
194.685
161.111
122.489
93.1707
68.9138
50.684
37.3295
27.8234
19.0729
16.5236
11.3951
7.56792
4.98471
3.12606
1.7969
0.850934
0.19081
-0.280496
-0.624202
-0.86571
-1.02081
-1.11031
-1.13227
-1.07809
-0.936503
-0.703459
-0.41288
-0.259291
46.3132
46.9457
48.4562
50.976
54.7836
60.4295
68.8704
81.7565
101.987
138.264
195.391
260.261
274.005
184.752
126.705
90.8042
59.9219
39.7643
26.6264
18.4746
15.4739
7.36011
5.32986
3.65477
1.9458
0.565329
-0.446047
-1.23553
-1.80963
-2.23495
-2.5611
-2.7939
-2.95106
-3.04838
-3.06839
-2.9711
-2.70613
-2.19312
-1.38081
-0.596224
42.0319
42.4153
43.3272
44.875
47.3056
51.1113
57.2028
67.346
85.1585
129.87
208.024
371.357
504.762
168.089
148.722
93.2337
49.0538
26.1111
13.4095
5.62049
-2.70302
-31.0191
-27.7699
-25.5306
-24.3984
-23.223
-22.0872
-21.1273
-20.3862
-19.768
-19.2128
-18.7156
-18.2394
-17.7398
-17.1816
-16.5046
-15.5889
-14.1857
-11.7357
-6.82129
37.4252
37.5129
37.6888
38.0003
38.5714
39.6273
41.5789
45.2099
52.0696
85.0106
152.541
371.817
1786.41
257.995
70.3051
17.0779
0.478235
-7.02083
-12.907
-18.0412
-0.259477
-3.45036
-8.37131
-10.8595
-11.9275
-12.5067
-12.8913
-13.1498
-13.278
-13.2926
-13.2362
-13.0866
-12.8526
-12.5179
-12.0257
-11.2653
-10.0024
-7.78218
-3.86669
32.8418
32.6129
31.9953
30.9624
29.4725
27.4049
24.4998
20.1793
13.0282
15.6674
5.95612
-116.382
-827.604
-864.801
-237.425
-74.4788
-39.517
-28.1482
-22.4982
-17.1851
-11.5634
-20.8904
-17.4158
-13.6386
-11.3738
-9.83907
-8.6844
-7.82812
-7.20407
-6.73894
-6.37743
-6.0746
-5.8172
-5.57189
-5.29757
-4.94327
-4.43679
-3.66338
-2.4915
-0.96226
28.6591
28.1185
26.7545
24.4695
21.0899
16.2451
9.25917
-1.10604
-17.2509
-35.4618
-90.4083
-200.994
-365.587
-384.233
-237.761
-129.043
-76.6648
-50.0462
-34.8923
-25.1051
-19.3505
-18.5491
-12.3642
-7.32288
-4.78879
-3.51739
-2.70939
-2.1555
-1.7953
-1.56785
-1.41762
-1.31055
-1.22817
-1.14425
-1.03859
-0.888374
-0.666626
-0.348603
0.0451677
0.298722
25.199
24.3988
22.4273
19.138
14.2893
7.40196
-2.32238
-16.1794
-36.361
-66.7388
-108.636
-160.933
-207.746
-212.997
-171.611
-120.306
-82.4969
-58.4813
-42.6283
-31.4532
-23.8188
-19.4323
-14.4297
-10.3932
-7.78978
-6.04849
-4.71837
-3.65597
-2.81981
-2.16621
-1.64896
-1.23182
-0.894952
-0.614609
-0.374777
-0.162849
0.0279143
0.191604
0.288528
0.202762
22.7415
21.7604
19.3634
15.3916
9.58511
1.45535
-9.72294
-24.9166
-45.3153
-72.085
-105.012
-140.233
-167.556
-172.377
-150.563
-116.357
-85.6391
-63.2406
-47.2548
-35.3772
-26.5056
-20.0255
-14.829
-10.6583
-7.51739
-5.21527
-3.50304
-2.21427
-1.24999
-0.536369
-0.0107976
0.375223
0.655816
0.856186
0.993106
1.07452
1.09791
1.04507
0.870848
0.470968
21.4742
20.3966
17.7818
13.4692
7.19964
-1.49784
-13.2647
-28.8295
-48.8427
-73.4482
-101.352
-128.599
-148.233
-152.394
-138.353
-113.036
-86.8534
-65.5797
-49.5521
-37.366
-28.0144
-20.9362
-15.5611
-11.3899
-8.20903
-5.84979
-4.1019
-2.785
-1.78157
-1.01549
-0.430606
0.0161638
0.355468
0.607877
0.785054
0.89052
0.917538
0.847596
0.649534
0.277613
53.9745
54.8422
56.9005
60.1618
64.6284
70.3497
77.338
85.4376
94.1938
102.673
109.303
111.938
108.677
99.2333
85.7535
71.4731
58.4482
47.2436
37.8138
30.0183
23.6981
18.6618
14.7083
11.6329
9.24431
7.37189
5.8984
4.75646
3.87216
3.18658
2.65709
2.25024
1.92806
1.68183
1.47612
1.30457
1.13124
0.938014
0.699082
0.411567
53.0042
53.8511
55.8509
59.0316
63.4312
69.1545
76.3025
84.8545
94.5234
104.505
113.116
117.426
114.045
102.489
86.5015
70.7224
57.0001
45.4582
35.9147
28.1633
21.9559
17.0814
13.2911
10.3998
8.17758
6.41758
5.00009
3.92363
3.08801
2.43233
1.92226
1.52413
1.22112
0.973901
0.790375
0.642248
0.520001
0.402154
0.277077
0.15399
51.1044
51.895
53.7547
56.7382
60.944
66.5766
73.9077
83.2046
94.5994
107.732
120.66
128.752
124.953
108.338
87.5145
69.2338
54.229
42.0618
32.3387
24.6955
18.6411
14.2612
10.6637
7.97886
5.96776
4.43205
3.23582
2.28545
1.56651
1.0351
0.636431
0.340041
0.130381
-0.0049279
-0.0865161
-0.115811
-0.0936451
-0.0234176
0.076404
0.162445
48.3434
49.0294
50.6369
53.2481
57.0256
62.2893
69.5333
79.4653
93.0701
111.552
136.011
156.843
155.647
128.667
98.2953
75.1347
55.9467
41.4018
30.5099
22.4216
11.5798
8.89659
5.81079
3.38542
1.38806
-0.208897
-1.40848
-2.3328
-2.96342
-3.39702
-3.70606
-3.91223
-4.03035
-4.07986
-4.05481
-3.93333
-3.6931
-3.28415
-2.62802
-1.5505
44.8456
45.3665
46.583
48.5852
51.5734
55.9389
62.3376
71.8697
86.4017
115.32
155.915
201.115
206.268
136.465
94.6853
67.4454
43.7454
28.1996
17.8841
11.4469
9.79116
-1.965
-3.16775
-4.54514
-5.84455
-6.71947
-7.43899
-8.28601
-8.71396
-8.93271
-9.06396
-9.13716
-9.131
-9.0457
-8.907
-8.63829
-8.16468
-7.34039
-5.9272
-3.57926
40.8017
41.098
41.775
42.9045
44.6638
47.3936
51.711
58.7832
70.9233
105.54
165.211
287.715
383.922
101.527
109.223
54.9916
19.6885
2.36442
-6.90451
-11.9209
-10.8883
-24.6821
-26.2747
-30.2528
-31.6157
-31.6009
-31.0329
-30.0378
-29.2448
-28.5183
-27.7881
-27.0384
-26.3102
-25.5852
-24.7791
-23.8272
-22.5836
-20.7031
-17.3813
-10.6422
36.4717
36.4974
36.519
36.5586
36.6956
37.068
37.9187
39.7015
43.3005
68.2035
119.989
300.55
1597.08
251.083
-17.2965
-58.8719
-66.8984
-67.9618
-66.1018
-61.1224
-35.2053
-34.4485
-36.39
-36.5044
-35.6062
-34.5194
-33.4531
-32.5002
-31.5939
-30.6992
-29.8375
-28.9775
-28.0718
-27.1267
-26.0461
-24.6732
-22.634
-19.0529
-11.6256
32.1777
31.9148
31.2347
30.0977
28.4567
26.1905
23.0492
18.5227
11.4854
12.5246
3.87543
-90.8109
-660.589
-657.62
-190.779
-76.5351
-50.6754
-40.7298
-34.9743
-29.4557
-26.433
-29.8703
-26.3507
-22.5538
-20.1721
-18.4578
-17.1279
-16.0863
-15.2597
-14.5838
-14.0069
-13.4982
-13.0467
-12.5758
-12.0743
-11.4882
-10.7166
-9.57301
-7.71035
-4.43198
28.2528
27.7222
26.3832
24.151
20.8837
16.2731
9.77217
0.4319
-13.4294
-28.9793
-72.9979
-157.672
-281.009
-295.576
-187.512
-106.859
-67.0141
-45.8462
-33.3127
-25.1922
-22.7106
-18.3854
-14.7929
-11.6841
-9.73562
-8.44716
-7.47
-6.6999
-6.09937
-5.63221
-5.25957
-4.95121
-4.69157
-4.4475
-4.19475
-3.90374
-3.53044
-3.01315
-2.27025
-1.2113
25.0162
24.256
22.3787
19.269
14.7354
8.39124
-0.391484
-12.5967
-29.8272
-54.8874
-88.4171
-128.799
-163.764
-168.33
-138.046
-99.4334
-70.0926
-50.8163
-37.6393
-28.0911
-21.4017
-17.6969
-14.2533
-11.3204
-9.12296
-7.47769
-6.18088
-5.13599
-4.29709
-3.62355
-3.07746
-2.62741
-2.25447
-1.93391
-1.64846
-1.38275
-1.12526
-0.867559
-0.612048
-0.369742
22.7189
21.7941
19.5441
15.8382
10.4746
3.06449
-6.95875
-20.322
-37.8637
-60.316
-87.256
-115.379
-136.898
-140.706
-124.093
-97.8276
-73.5635
-55.3168
-41.9288
-31.7717
-24.0538
-18.4041
-14.0671
-10.6228
-7.96551
-5.95757
-4.43132
-3.26043
-2.36088
-1.67172
-1.1435
-0.737976
-0.426847
-0.188253
-0.00720705
0.124484
0.205889
0.226007
0.1627
-0.00536198
21.5363
20.5241
18.0795
14.0735
8.30483
0.400533
-10.1379
-23.8491
-41.1588
-62.0323
-85.2581
-107.548
-123.393
-126.777
-115.818
-95.843
-74.8539
-57.3991
-43.9348
-33.5052
-25.3837
-19.1819
-14.4973
-10.9023
-8.14643
-6.05642
-4.47203
-3.25919
-2.32349
-1.59991
-1.04008
-0.606089
-0.270441
-0.0146631
0.172509
0.295256
0.347784
0.315076
0.180355
-0.0465016
51.9919
52.7142
54.4167
57.0902
60.7101
65.278
70.7488
76.9259
83.365
89.2586
93.3703
94.1792
90.4715
82.2678
71.2587
59.779
49.3001
40.211
32.4589
25.9436
20.5679
16.2276
12.8179
10.2158
8.21084
6.62222
5.35705
4.36651
3.59891
3.00579
2.54846
2.19596
1.922
1.70715
1.53111
1.37734
1.22237
1.04363
0.814026
0.507053
51.0677
51.7696
53.4139
56.0021
59.5357
64.0565
69.5779
75.9888
82.9408
89.6769
94.8252
96.3333
92.2723
82.6673
70.2606
58.1176
47.4709
38.3618
30.6642
24.2582
18.9949
14.7509
11.4778
9.10089
7.31046
5.88973
4.75407
3.8647
3.16772
2.61865
2.1856
1.8439
1.57541
1.3613
1.19108
1.05131
0.926989
0.797693
0.63635
0.407381
49.2622
49.9096
51.4185
53.8073
57.1244
61.4784
66.994
73.7395
81.6075
90.0633
97.5807
100.872
95.7075
82.3421
66.9758
53.8381
42.9782
33.7879
26.1005
19.7658
14.5495
10.4807
7.99749
6.28792
4.82252
3.61288
2.69817
2.02545
1.53781
1.18539
0.92981
0.747607
0.624545
0.547195
0.506431
0.500786
0.52824
0.577102
0.611778
0.520361
46.6472
47.1958
48.4684
50.5026
53.3907
57.3194
62.5512
69.4085
78.2355
89.2511
100.546
107.828
100.444
79.4857
60.4672
47.0699
36.354
27.6079
20.4866
14.3896
8.04262
1.87251
2.10149
2.63198
2.08238
1.2175
0.465019
-0.138203
-0.597609
-0.950028
-1.22167
-1.4209
-1.55219
-1.62358
-1.63125
-1.5589
-1.3881
-1.09275
-0.66194
-0.15647
43.3471
43.747
44.662
46.1419
48.299
51.3679
55.698
61.8096
70.3975
90.3771
111.16
130.656
123.146
81.2296
56.3259
42.3573
28.1234
17.8885
10.8217
5.61833
0.253589
-13.9686
-11.0797
-8.03565
-6.68522
-5.97848
-5.50713
-5.20929
-4.97412
-4.79926
-4.67926
-4.59109
-4.51429
-4.43308
-4.31281
-4.10459
-3.74387
-3.12938
-2.1607
-0.905207
39.5475
39.7485
40.1841
40.8912
41.9706
43.6093
46.1174
50.0127
56.1201
77.9647
104.793
147.266
164.511
27.7259
20.339
3.70715
-4.98843
-8.97557
-12.1492
-14.8262
-21.5921
-14.3459
-15.3786
-17.1487
-17.6569
-17.531
-17.1822
-16.735
-16.3096
-15.8957
-15.481
-15.0537
-14.6409
-14.235
-13.7715
-13.1872
-12.3696
-11.0853
-8.9007
-5.10635
35.496
35.4595
35.3224
35.0868
34.7855
34.4654
34.1849
34.0191
34.0251
48.2027
59.7877
130.172
172.672
-685.725
-124.054
-85.5414
-61.9099
-58.0263
-55.1862
-53.0659
-67.1151
-40.0926
-37.8877
-35.7004
-33.7272
-31.822
-30.1231
-28.6546
-27.3892
-26.2647
-25.2406
-24.3007
-23.4277
-22.5636
-21.6744
-20.6947
-19.5066
-17.8258
-15.0286
-9.52095
31.4895
31.2007
30.4568
29.2152
27.426
24.96
21.5612
16.7461
9.57025
8.0394
-13.6942
-80.9318
-304.563
-258.784
-106.427
-56.469
-34.8249
-25.8533
-21.1504
-17.0999
-9.17235
5.98376
2.29078
-1.68283
-3.36408
-4.1571
-4.66348
-4.99857
-5.20522
-5.32063
-5.37289
-5.38758
-5.36181
-5.27258
-5.10566
-4.83794
-4.40329
-3.67862
-2.50767
-0.94362
27.8374
27.3124
26.0006
23.828
20.6816
16.3101
10.274
1.81551
-10.4839
-29.5081
-53.3637
-107.541
-177.312
-188.507
-128.839
-80.0954
-52.8125
-36.8345
-26.9096
-19.677
-10.0803
-1.54253
-2.72776
-4.1875
-4.16386
-3.66247
-3.17589
-2.75952
-2.40465
-2.1119
-1.8765
-1.68642
-1.53241
-1.40004
-1.25787
-1.08382
-0.853381
-0.535539
-0.144478
0.121637
24.8252
24.1027
22.3269
19.407
15.201
9.41459
1.58584
-8.97262
-23.2503
-42.5233
-67.3275
-95.1487
-118.028
-121.743
-103.247
-77.677
-56.7097
-41.984
-31.4099
-23.1713
-16.1718
-11.4195
-8.76235
-6.83211
-5.08836
-3.6451
-2.55121
-1.73242
-1.11216
-0.641215
-0.284039
-0.0119612
0.193753
0.352895
0.48614
0.603368
0.706957
0.784388
0.778098
0.506166
22.6911
21.8274
19.7295
16.302
11.3989
4.73065
-4.11037
-15.6086
-30.2359
-48.208
-68.846
-89.6816
-105.069
-108.129
-97.1507
-78.8127
-61.0034
-46.8496
-36.0247
-27.4911
-20.6252
-15.2906
-11.2008
-8.17724
-5.89018
-4.13009
-2.78102
-1.7487
-0.956786
-0.349649
0.113209
0.463175
0.723954
0.913985
1.04607
1.1259
1.14765
1.08838
0.895389
0.457807
21.5935
20.6518
18.3867
14.7021
9.45477
2.36931
-6.90891
-18.7251
-33.2748
-50.3243
-68.7376
-85.9603
-97.9491
-100.628
-92.8706
-78.2912
-62.4366
-48.7426
-37.7991
-29.0759
-22.0766
-16.5454
-12.2833
-9.05811
-6.58859
-4.6652
-3.16649
-2.00578
-1.11027
-0.421307
0.105984
0.505869
0.804348
1.01954
1.16205
1.23533
1.23053
1.12457
0.873405
0.401854
50.0998
50.6808
52.042
54.1601
56.9824
60.4728
64.5416
68.9709
73.3482
77.0098
79.0456
78.4652
74.6151
67.7174
59.0021
50.0303
41.7871
34.5516
28.2998
22.9817
18.5555
14.9694
12.1492
9.97069
8.2528
6.85867
5.72545
4.81793
4.09911
3.53052
3.07966
2.72023
2.43006
2.18961
1.98063
1.7849
1.57965
1.33782
1.02718
0.611754
49.2203
49.7815
51.085
53.1189
55.8378
59.2421
63.2745
67.7637
72.3422
76.3501
78.7705
78.3472
74.1445
66.4837
57.1466
48.0141
39.8831
32.7946
26.6917
21.5445
17.3022
13.9143
11.3324
9.38232
7.83322
6.56035
5.52007
4.67965
4.00155
3.4515
3.00325
2.63641
2.33417
2.08078
1.86184
1.66353
1.46645
1.24414
0.959281
0.565265
47.5056
48.0149
49.1868
51.02
53.5111
56.6921
60.5734
65.0804
69.9538
74.5829
77.7594
77.6191
72.4102
62.8218
52.2868
43.196
35.5332
28.7911
22.9542
18.075
14.1224
11.149
9.216
7.70934
6.32412
5.12579
4.17928
3.45389
2.89625
2.465
2.13165
1.87504
1.67924
1.53077
1.41845
1.3334
1.26205
1.17866
1.02963
0.69888
45.0306
45.4491
46.4013
47.8964
49.9688
52.6918
56.153
60.4022
65.3656
70.6206
74.8432
75.2067
68.1772
55.2016