/*--------------------------------*- C++ -*----------------------------------*\
| =========                 |                                                 |
| \\      /  F ield         | OpenFOAM: The Open Source CFD Toolbox           |
|  \\    /   O peration     | Version:  2306                                  |
|   \\  /    A nd           | Website:  www.openfoam.com                      |
|    \\/     M anipulation  |                                                 |
\*---------------------------------------------------------------------------*/
FoamFile
{
    version     2.0;
    format      ascii;
    arch        "LSB;label=32;scalar=64";
    class       surfaceScalarField;
    location    "1.3";
    object      phi;
}
// * * * * * * * * * * * * * * * * * * * * * * * * * * * * * * * * * * * * * //

dimensions      [0 3 -1 0 0 0 0];

oriented        oriented;

internalField   nonuniform List<scalar> 
338621
(
24.9948
0.00247936
0.00139321
24.9869
0.00504059
0.00289922
24.9744
0.0078773
0.00462449
24.9569
0.0108711
0.0066961
24.9334
0.0141419
0.00941058
24.9004
0.0201043
0.012919
24.8536
0.0295429
0.0173174
24.7906
0.0400647
0.0228988
24.7289
0.0317439
0.0298797
24.6863
0.00437745
0.038166
24.6586
-0.0202278
0.0476045
24.5855
0.0150153
0.0577853
24.6147
-0.0979898
0.0684431
24.7453
-0.209548
0.0785552
24.7869
-0.129304
0.0873883
24.819
-0.126633
0.0944294
24.8475
-0.128246
0.0996299
24.8707
-0.126641
0.103479
24.8903
-0.125694
0.106163
24.9171
-0.134835
0.108104
24.9471
-0.139352
0.109347
24.9701
-0.13331
0.110334
24.9879
-0.12892
0.111212
25.0024
-0.126439
0.111914
25.0147
-0.124863
0.112636
25.0248
-0.123567
0.113419
25.0335
-0.122866
0.114199
25.0407
-0.12219
0.11496
25.0467
-0.121681
0.11578
25.0516
-0.121586
0.116606
25.0559
-0.121637
0.117393
25.0596
-0.121829
0.11808
25.063
-0.122069
0.118745
25.066
-0.122333
0.119336
25.0688
-0.122619
0.119783
25.0719
-0.123212
0.120094
25.0753
-0.123598
0.120208
25.0791
-0.123957
0.120193
25.0834
-0.124336
0.120001
-0.125003
0.119373
24.9948
0.00492613
0.00136549
24.9868
0.0102057
0.00280439
24.974
0.016272
0.00449898
24.9564
0.0219892
0.0065387
24.9328
0.0285005
0.00921459
24.9031
0.0372844
0.0125996
24.8673
0.0483395
0.0170299
24.8216
0.0630983
0.0226806
24.7572
0.0662135
0.0298142
24.683
0.0399585
0.0384641
24.6409
-0.0269176
0.0486445
24.6284
-0.0324008
0.0595344
24.6676
-0.209366
0.0718319
24.7517
-0.377269
0.0832734
24.8317
-0.30249
0.0929158
24.8997
-0.295063
0.100369
24.9516
-0.285973
0.105768
24.9936
-0.278238
0.109643
25.0386
-0.282968
0.11238
25.0726
-0.283062
0.11424
25.0931
-0.275348
0.115567
25.1078
-0.264502
0.116541
25.1179
-0.25649
0.117468
25.1259
-0.252671
0.118269
25.1318
-0.249875
0.119049
25.1364
-0.247949
0.119808
25.1393
-0.246322
0.120611
25.1414
-0.245734
0.121402
25.1431
-0.245563
0.12221
25.144
-0.245451
0.123014
25.1444
-0.245836
0.123786
25.1442
-0.246172
0.124503
25.1441
-0.247156
0.125165
25.144
-0.247963
0.125734
25.1441
-0.248823
0.126177
25.1443
-0.249973
0.126517
25.145
-0.250898
0.126643
25.1462
-0.251834
0.126654
25.1484
-0.253004
0.126444
-0.253535
0.125849
24.9951
0.00701881
0.0012964
24.9873
0.0154426
0.00265698
24.9751
0.0242421
0.00422709
24.9569
0.0339961
0.0062323
24.9323
0.0443087
0.0087984
24.901
0.0565801
0.0121139
24.8609
0.0718235
0.0165614
24.8118
0.0899293
0.022314
24.743
0.105101
0.0298284
24.6455
0.0980623
0.0393827
24.5697
0.00508103
0.0510485
-0.00644627
0.00501129
-0.00591306
24.6672
-0.039039
0.064876
-0.0587804
-0.0386307
-0.0586858
24.56
-0.0113428
0.078176
-0.0956101
0.0207583
-0.0945193
24.7325
-0.18235
0.0914133
-0.124095
-0.212557
-0.122535
24.8255
-0.129095
0.101729
-0.121776
-0.127001
-0.119411
24.8859
-0.118318
0.109342
-0.116442
-0.115754
-0.114277
24.9396
-0.114583
0.114721
-0.114815
-0.112634
-0.112246
25.0052
-0.117135
0.118506
-0.116032
-0.115057
-0.113942
25.0479
-0.11346
0.121142
-0.111961
-0.111399
-0.10994
25.0734
-0.109478
0.122837
-0.108317
-0.107375
-0.106158
25.0916
-0.417606
0.124003
25.106
-0.403718
0.124877
25.1151
-0.39148
0.125883
25.1221
-0.386605
0.126955
25.1276
-0.383432
0.128022
25.1316
-0.38086
0.129001
25.1339
-0.378579
0.12989
25.1355
-0.378035
0.130708
25.1358
-0.377283
0.13147
25.1359
-0.377717
0.132191
25.1352
-0.377998
0.132866
25.1343
-0.378813
0.133494
25.133
-0.379858
0.134011
25.1318
-0.381287
0.134542
25.1304
-0.382304
0.134891
25.1291
-0.383878
0.135159
25.1285
-0.385488
0.135211
25.1284
-0.386909
0.135128
25.1289
-0.388232
0.134812
-0.38929
0.134139
24.9955
0.00936367
0.00118941
24.9886
0.0199268
0.00243544
24.9767
0.0323395
0.00385126
24.9596
0.0453035
0.0057346
24.9349
0.0609312
0.00811368
24.9004
0.0798488
0.0112808
24.8548
0.101838
0.0155791
24.7967
0.126682
0.0213172
24.7304
0.142358
0.0290877
6.14158
0.0365433
0.0394786
0.0537363
0.0376551
0.0535413
6.16373
6.14058
6.16166
6.12409
0.0168166
0.00575096
-6.11106
6.09899
-0.0345387
0.00754613
-6.10297
6.1245
-0.042376
0.00947398
-6.11676
6.14366
-0.220835
0.0115531
-6.16238
6.17665
-0.156558
0.0131799
-6.18991
6.2006
-0.143271
0.0142664
-6.21189
6.22618
-0.143949
0.0150796
-6.23813
6.24533
-0.139992
0.0156625
-6.25113
6.25633
-0.134694
0.016039
-6.26073
6.26472
-0.129772
0.0162982
25.1017
-0.143046
0.134287
-0.143909
-0.140966
-0.142478
-6.2683
-6.273
-6.26883
-6.27314
25.1087
-0.54573
0.135004
25.1124
-0.531406
0.136238
25.1159
-0.527602
0.137512
25.1172
-0.523485
0.138788
25.1165
-0.52014
0.139951
25.1152
-0.518181
0.140958
25.1122
-0.516928
0.141825
25.1081
-0.515708
0.142581
25.1029
-0.515734
0.143252
25.097
-0.515952
0.143844
25.0903
-0.516509
0.144359
25.083
-0.517259
0.144743
25.0754
-0.518885
0.14513
25.0679
-0.520049
0.145289
25.0602
-0.521503
0.145328
25.0527
-0.523147
0.145096
25.0457
-0.524481
0.144606
25.0402
-0.526549
0.143841
-0.527302
0.142631
24.9972
0.00999795
0.00104475
24.9911
0.0238509
0.00213593
24.9813
0.0388633
0.00336786
24.9657
0.0558468
0.0050257
24.9428
0.0767795
0.00712425
24.9093
0.103391
0.00993612
24.8594
0.138007
0.0137553
24.7853
0.181737
0.0190375
6.17129
0.231088
0.0262522
6.16404
6.17093
6.164
6.15527
0.0486453
0.00392159
6.13
0.00547669
-6.15785
0.02
0.0117603
0.0115384
0.0201935
-0.0411139
-6.07728
6.04314
0.00743586
-0.00228465
0.0040807
0.00361026
-0.00201553
0.0232923
-6.04265
6.06087
0.00982977
0.0290855
-0.0401945
-0.0404834
-0.0191279
0.042636
-6.11314
6.13836
0.0127155
-0.0520851
-0.0668009
-0.104742
-0.0525443
0.238206
-6.17083
6.18286
0.0144168
-0.0508113
-0.0547835
-0.0540287
-0.0513106
0.184484
-6.19453
6.20795
0.0154862
-0.0511841
-0.0506051
-0.0503142
-0.0514617
0.174665
-6.22155
6.23341
0.0162748
-0.0494307
-0.049598
-0.0492904
-0.0497737
0.169977
-6.2431
6.25039
0.0168211
-0.0467403
-0.0469505
-0.0465689
-0.0471553
0.163316
-6.25679
6.26137
0.0171896
-0.04415
-0.0446794
-0.0442615
-0.0445898
0.155907
-6.26545
6.26755
0.0174587
-0.0419092
-0.0426303
-0.0422264
-0.0423119
0.14951
-6.27057
6.27243
-0.162986
0.0180767
25.049
-0.650408
0.135539
-6.27266
-6.26606
-6.27311
-6.26803
25.0248
-0.643609
0.136372
24.9985
-0.637581
0.136288
24.9717
-0.632421
0.135694
24.9459
-0.629157
0.134893
24.9205
-0.626782
0.133944
24.8955
-0.624822
0.132896
24.8714
-0.62343
0.131825
24.8473
-0.622444
0.130769
24.8238
-0.622121
0.129755
24.8008
-0.622352
0.12878
24.7787
-0.622884
0.12779
24.7568
-0.623863
0.126856
24.7361
-0.625145
0.125809
24.7163
-0.626408
0.124637
24.6978
-0.627839
0.123237
24.6811
-0.629324
0.12153
24.6664
-0.631323
0.119487
-0.634538
0.116949
24.9998
0.00861543
0.000865739
24.9965
0.0254867
0.0017645
24.9889
0.0436848
0.00278573
24.9771
0.0635761
0.00408657
24.9594
0.0886395
0.00579664
24.9323
0.122451
0.00803602
24.8892
0.170081
0.0110176
24.8169
0.238844
0.0151589
6.17084
0.344938
0.0206934
6.17042
6.17081
6.17025
-0.0646049
6.14527
0.0870912
0.00307991
-0.0195156
-1.52766
1.52252
0.0240768
0.000575049
-0.0193368
-1.50437
1.49226
0.0307149
0.0007206
-1.46875
0.0521962
1.47863
-0.0632192
0.00114581
-1.52993
0.0846208
1.53855
-0.0946288
0.00138829
-1.53668
0.0616877
-0.0656285
0.00192386
1.53869
-1.54786
0.0601786
-0.0650578
0.00237176
1.55037
0.0579875
-1.556
1.55743
-0.0620794
0.00266138
0.0539854
-1.56031
1.56084
-0.0573522
0.00284098
0.0509329
-1.56142
1.56148
-0.0538573
0.00286428
0.0480436
-1.5608
1.56042
-0.0503627
0.00270543
-1.55353
0.180226
6.15352
-0.179598
0.0235347
-1.5369
-1.553
-1.53426
23.8535
-0.742891
0.0663997
-6.09749
-5.80313
-6.11386
-5.81292
23.8672
-0.724778
0.0673916
23.8773
-0.714588
0.0669457
23.8866
-0.707219
0.0654925
23.8956
-0.701797
0.0636423
23.9046
-0.697447
0.0616118
23.9141
-0.693801
0.0595222
23.9239
-0.690706
0.0574525
23.9342
-0.688168
0.0554386
23.9447
-0.686149
0.0534851
23.9554
-0.684571
0.0515762
23.9663
-0.683474
0.0496644
23.9773
-0.682612
0.0477868
23.9881
-0.681835
0.0458546
23.9991
-0.681227
0.0438389
24.01
-0.680466
0.041685
24.021
-0.679553
0.0393064
24.0315
-0.678428
0.0366006
-0.676593
0.0335543
25.003
0.00469744
0.000675843
25.0036
0.0235658
0.00134938
25.0008
0.0444133
0.00211375
24.9951
0.0662143
0.0030162
24.9864
0.0931999
0.00417833
24.9729
0.130255
0.00568782
24.9533
0.182139
0.00755697
24.9223
0.259919
0.00994193
6.21337
0.385419
0.0127338
6.22144
6.21307
6.22117
-0.105429
6.19799
0.118989
0.00181373
-0.0391831
-1.54211
1.53597
0.0450162
0.000306555
-0.0819773
-1.50658
1.48807
0.100177
0.000305949
0.00439514
-0.0747086
0.0748928
-0.00459956
2.02078e-05
-0.0214013
0.0004493
0.0209128
3.21253e-06
3.59729e-05
-0.236266
0.0169431
-0.0280959
0.00152513
0.245893
-1.21366
0.065099
-0.0823005
-0.00303484
1.23389
0.0606112
-1.27677
1.28587
-0.0662611
-0.003456
0.0592828
-1.3128
1.32135
-0.0648575
-0.00297688
0.0554989
-1.34212
1.3482
-0.0594588
-0.00211789
0.0519825
-1.36262
1.36784
-0.0560662
-0.00113313
-1.40347
0.214599
5.85481
-0.224072
-0.0192583
-1.50022
-1.42122
-1.50117
24.1012
-0.668799
-0.118645
-5.89591
-6.17232
-5.81842
-6.16998
24.1366
-0.642937
-0.11723
24.1682
-0.631411
-0.114805
24.1969
-0.623834
-0.112109
24.2223
-0.617936
-0.109274
24.245
-0.613704
-0.106411
24.2658
-0.610851
-0.103766
24.2854
-0.608898
-0.101394
24.3043
-0.607651
-0.0993934
24.3228
-0.606867
-0.0977679
24.3411
-0.606353
-0.0965129
24.3591
-0.606042
-0.0955106
24.377
-0.605715
-0.0947854
24.3946
-0.605239
-0.0941899
24.4116
-0.604456
-0.0937546
24.4281
-0.60351
-0.0934948
24.4441
-0.60205
-0.0934347
24.4592
-0.599826
-0.0936885
-0.596042
-0.0942971
25.0048
-0.000294434
0.000456599
25.0102
0.0173157
0.000913761
25.0152
0.0380095
0.00138478
25.0192
0.0602418
0.00191258
25.0212
0.0887173
0.00248017
25.0264
0.121947
0.00314881
25.0386
0.166179
0.00377415
25.0646
0.229718
0.00417231
6.27448
0.329984
0.00398576
6.28228
6.27475
6.28459
-0.111029
6.28225
0.102851
0.000415992
-0.0444198
-1.578
1.57971
0.0426967
1.85931e-05
-0.0838544
-1.59828
1.61329
-0.000169116
0.0690188
-0.0258074
-1.71328
1.75221
-0.00115899
0.0559471
-0.0209598
-0.0259068
-0.0210508
0.100308
-1.71231
1.68265
-0.000908202
-0.0697349
0.1024
-1.60895
-0.0015961
1.59849
-0.090339
0.0787618
-1.58416
-0.00194778
1.58126
-0.0739111
0.0578374
-1.57663
1.5757
-0.0547466
-0.00215406
0.0585214
-1.57394
1.57214
-0.054464
-0.00225576
0.052706
-1.57174
1.57109
-0.0497746
-0.00228219
0.0488208
-1.57016
1.56967
-0.0460732
-0.00226305
-1.56747
0.181464
6.26443
-0.159159
-0.0179459
-1.56697
-1.56724
-1.56711
25.0727
-0.536421
-0.128631
-6.26839
-6.26824
-6.27068
-6.26909
25.0753
-0.517339
-0.128191
25.0738
-0.502861
-0.127099
25.0711
-0.495114
-0.12598
25.0683
-0.49009
-0.125037
25.0656
-0.48684
-0.124209
25.0631
-0.484753
-0.123596
25.0606
-0.48322
-0.123146
25.0585
-0.482726
-0.122899
25.0568
-0.482249
-0.122846
25.0551
-0.481715
-0.123021
25.054
-0.481638
-0.123246
25.0531
-0.481211
-0.123665
25.0523
-0.480276
-0.124113
25.0521
-0.479602
-0.124679
25.0523
-0.47837
-0.125352
25.0531
-0.476649
-0.126138
25.0545
-0.474168
-0.127097
-0.471155
-0.12815
25.0058
-0.00538125
0.000226741
25.0144
0.00828212
0.00048167
25.0275
0.0241975
0.000682874
25.0389
0.0479489
0.000831632
25.0544
0.0723555
0.00088405
25.0779
0.097621
0.000741718
25.1159
0.127979
0.000242039
25.1791
0.167555
-0.00106733
6.32058
0.229118
-0.00367075
6.31875
6.32495
6.31935
-0.0881001
6.33667
0.0727759
-0.000769581
-0.0330351
6.41316
0.087036
-0.00169088
-0.0342051
-0.0331669
-0.033781
-6.36432
-0.0330919
6.51672
0.0746186
-0.0034726
-0.025806
-0.0329254
-0.0257036
-6.47033
-0.00682165
-6.5471
6.51291
-0.00716555
-0.00623344
0.0155885
-0.0070437
0.0459039
0.0459141
-6.53417
6.512
-0.12474
-0.00928084
0.0397186
0.036592
0.0339971
0.0553188
-6.4473
6.40965
-0.178167
-0.0116302
0.0558339
0.0576683
0.0586475
0.0565189
-6.3698
6.33781
-0.175818
-0.0132668
0.0552328
0.0554692
0.0538464
0.0466806
-6.31992
6.30893
-0.157306
-0.0144786
0.0457337
0.0455002
0.0448431
0.0445809
-6.3005
6.29485
-0.155953
-0.0152611
0.044326
0.0441032
0.0438514
0.0414716
-6.29062
6.28544
-0.142715
-0.0156786
0.0409445
0.0409095
0.0402428
0.0384248
-6.28139
6.27615
-0.130242
-0.0158799
0.0379279
0.037829
0.0371854
0.141518
-6.27479
6.27309
-0.123729
-0.0160859
25.0741
-0.399234
-0.128617
-6.27076
-6.27078
-6.27106
-6.27001
25.0672
-0.382425
-0.128043
25.0638
-0.372066
-0.127437
25.0612
-0.36556
-0.126937
25.0592
-0.361582
-0.126489
25.0574
-0.358989
-0.126049
25.0558
-0.357594
-0.12564
25.0548
-0.356858
-0.125292
25.0536
-0.35657
-0.125016
25.0527
-0.35651
-0.124812
25.052
-0.356293
-0.124705
25.0515
-0.35653
-0.12462
25.0509
-0.356102
-0.124537
25.0512
-0.356044
-0.124525
25.0516
-0.3554
-0.124567
25.0521
-0.354276
-0.124659
25.0536
-0.353299
-0.124855
25.0565
-0.351809
-0.125222
-0.350259
-0.125802
25.0065
-0.0104992
9.24334e-05
25.0164
-0.00186069
0.000141661
25.0255
0.0150349
9.9597e-05
25.0422
0.0312496
-4.69898e-05
25.069
0.0459708
-0.000438109
25.1026
0.065208
-0.00120237
25.1501
0.0829485
-0.00256619
25.2165
0.106143
-0.00499297
25.3253
0.12948
-0.00913267
25.4298
0.14257
-0.0158282
-0.0606
-0.0561533
-0.0581436
-0.0564692
25.5766
0.129282
-0.0259356
-0.0598758
-0.063178
-0.0609128
-0.0662097
25.7092
0.0505903
-0.040364
-0.0409131
-0.0269342
-0.0442975
-0.0304178
25.5857
-0.160683
-0.0579566
0.0225925
0.125514
0.0213645
0.173118
25.4927
-0.24193
-0.0768767
0.0846339
0.118151
0.100328
0.109075
25.4243
-0.251862
-0.0928386
0.0838957
0.149203
0.032555
0.147655
25.3392
-0.354919
-0.104771
0.135862
0.138718
0.134226
0.135986
25.2561
-0.32345
-0.112431
0.129264
0.132747
0.126939
0.12989
25.1914
-0.33193
-0.117075
0.131831
0.128597
0.128532
0.124696
25.1498
-0.309118
-0.119678
0.121236
0.117875
0.117706
0.113447
25.1277
-0.288429
-0.121037
0.11011
0.109711
0.1052
0.106515
25.11
-0.272564
-0.121627
0.105033
0.104222
0.10207
0.100562
25.0941
-0.261658
-0.121603
25.0847
-0.251765
-0.121281
25.0786
-0.24498
-0.121012
25.074
-0.240044
-0.120921
25.0701
-0.236868
-0.120865
25.0673
-0.235255
-0.120915
25.0644
-0.233622
-0.121059
25.062
-0.233236
-0.121288
25.0597
-0.232681
-0.121592
25.058
-0.232806
-0.121944
25.0568
-0.232763
-0.122334
25.0554
-0.232425
-0.122747
25.0549
-0.232478
-0.123082
25.0542
-0.231891
-0.123477
25.054
-0.231382
-0.123837
25.0548
-0.230885
-0.124206
25.0563
-0.23015
-0.124619
25.058
-0.228392
-0.12512
-0.226841
-0.125736
25.0068
-0.0153762
-3.58585e-05
25.01
-0.00505905
-0.000104262
25.0179
0.00743182
-0.000313238
25.0377
0.0121204
-0.000652526
25.0633
0.0215914
-0.00132753
25.0929
0.038115
-0.00249929
25.1409
0.0392257
-0.00438127
25.2022
0.0522044
-0.0073594
25.2813
0.0624988
-0.0120559
25.3766
0.0662937
-0.0190169
25.4826
0.0523589
-0.0288248
25.5612
0.0143715
-0.0420245
25.5374
-0.0789057
-0.0576115
25.5223
-0.15267
-0.0736801
25.3995
-0.0410209
-0.0877784
25.3176
-0.173969
-0.0988634
25.2684
-0.168032
-0.106284
25.2082
-0.160652
-0.111132
25.1648
-0.151785
-0.11393
25.1343
-0.142544
-0.115476
25.1123
-0.134318
-0.116253
25.0952
-0.128172
-0.116443
25.0831
-0.123237
-0.116413
25.0742
-0.11982
-0.116293
25.0677
-0.117329
-0.116254
25.0629
-0.115861
-0.116195
25.0586
-0.114726
-0.116257
25.0557
-0.11424
-0.116418
25.0533
-0.114267
-0.116593
25.0514
-0.113961
-0.116834
25.0499
-0.114248
-0.117095
25.0486
-0.114071
-0.117362
25.0481
-0.114359
-0.117576
25.0475
-0.114146
-0.117768
25.0478
-0.114243
-0.117941
25.0483
-0.113783
-0.118067
25.0493
-0.113716
-0.118169
25.0507
-0.113302
-0.118291
25.0534
-0.112602
-0.118493
-0.112786
-0.118849
24.9871
-8.87968e-05
24.9822
-0.000186189
24.99
-0.000481479
25.0029
-0.00085182
25.0261
-0.0016824
25.0672
-0.00297385
25.1114
-0.00501884
25.1718
-0.00821162
25.2474
-0.0130888
25.3338
-0.0200139
25.4158
-0.0294171
25.4721
-0.0415554
25.4492
-0.0555451
25.3668
-0.0699114
25.4089
-0.0828482
25.3286
-0.0935598
25.2615
-0.100932
25.2065
-0.105616
25.163
-0.108403
25.1304
-0.109951
25.1068
-0.110746
25.0896
-0.111031
25.0774
-0.111058
25.0685
-0.110952
25.0621
-0.110958
25.0573
-0.111006
25.0537
-0.111176
25.051
-0.111513
25.0485
-0.111822
25.0468
-0.11223
25.0452
-0.112687
25.0442
-0.113095
25.0433
-0.11345
25.043
-0.11378
25.0428
-0.114114
25.0434
-0.114374
25.0443
-0.11458
25.0458
-0.114781
25.0482
-0.115039
-0.115434
24.9952
0.00193277
0.0026389
24.988
0.00471584
0.00544735
24.9767
0.00730848
0.00872239
24.9603
0.010485
0.0127493
24.9386
0.0133897
0.0178566
24.909
0.0181963
0.0244696
24.8668
0.0265439
0.0329821
24.8094
0.0365387
0.0438107
24.7538
0.0280225
0.0572639
24.7177
0.000127174
0.0736613
24.6933
-0.0211276
0.0923816
24.6319
0.00529938
0.112916
24.6614
-0.0962635
0.133989
24.7801
-0.195534
0.154241
24.8138
-0.118921
0.17174
24.8391
-0.116926
0.185565
24.8634
-0.120639
0.19586
24.8833
-0.119784
0.203371
24.9003
-0.119432
0.208706
24.9275
-0.131328
0.212474
24.9543
-0.132367
0.215061
24.9748
-0.127123
0.217024
24.9909
-0.123387
0.218629
25.004
-0.121228
0.220029
25.0148
-0.119418
0.221341
25.024
-0.118404
0.222637
25.0317
-0.11739
0.223948
25.038
-0.116638
0.225271
25.0436
-0.116361
0.226626
25.0485
-0.116273
0.228001
25.0526
-0.116078
0.229341
25.0561
-0.115991
0.230609
25.0596
-0.116484
0.231739
25.0631
-0.117004
0.232768
25.0664
-0.117031
0.233557
25.0699
-0.117606
0.234174
25.0736
-0.117902
0.234417
25.0776
-0.118252
0.234438
25.0824
-0.118834
0.234022
-0.119247
0.232641
24.9953
0.0038697
0.00257536
24.9882
0.00940523
0.00531401
24.9764
0.0151675
0.00851735
24.9601
0.0209971
0.0124798
24.938
0.0272918
0.0175314
24.9102
0.0345662
0.0241203
24.8771
0.044132
0.0326763
24.8345
0.0580262
0.0437259
24.7719
0.0625114
0.057759
24.6967
0.0382875
0.0751729
24.6542
-0.0263444
0.09566
24.5937
0.00573842
0.118633
24.6299
-0.204057
0.142263
24.7629
-0.411114
0.164858
24.8443
-0.29192
0.18377
24.9129
-0.283885
0.198371
24.964
-0.275038
0.209153
25.0048
-0.267623
0.216833
25.0502
-0.274539
0.222271
25.0822
-0.275002
0.226018
25.1008
-0.263892
0.22867
25.1138
-0.254256
0.230733
25.1225
-0.247011
0.232489
25.1289
-0.243333
0.233967
25.1341
-0.240768
0.235291
25.1374
-0.238486
0.236567
25.1395
-0.236732
0.237873
25.1414
-0.236285
0.23923
25.1424
-0.2358
0.240638
25.1427
-0.235671
0.242065
25.1431
-0.23607
0.243466
25.1435
-0.236671
0.24479
25.1433
-0.237155
0.246033
25.1431
-0.238192
0.247089
25.1436
-0.23926
0.247937
25.1438
-0.239833
0.248531
25.1446
-0.240918
0.24882
25.1463
-0.242018
0.248776
25.1481
-0.242615
0.248349
-0.243625
0.246921
24.9955
0.0057867
0.00244449
24.9886
0.0139703
0.00504481
24.977
0.0229381
0.00810003
24.9602
0.0322277
0.0119081
24.9372
0.0424536
0.0168161
24.9071
0.0535548
0.0233038
24.869
0.0668568
0.031905
24.8227
0.0833864
0.0433033
24.7574
0.099257
0.0582829
24.6631
0.0942805
0.0775306
24.5865
0.00475783
0.101231
-0.00560472
0.00495329
-0.00442979
24.7213
-0.0387801
0.128404
-0.0592932
-0.037722
-0.0577023
24.5804
0.0210299
0.156624
-0.0950917
0.02325
-0.0919359
24.7428
-0.214222
0.18339
-0.12319
-0.210587
-0.118619
24.8333
-0.127534
0.203864
-0.119994
-0.122831
-0.11461
24.8933
-0.116633
0.218906
-0.115277
-0.111687
-0.109762
24.9474
-0.11388
0.229839
-0.113372
-0.108649
-0.107889
25.0126
-0.116127
0.237476
-0.11495
-0.110861
-0.109474
25.0545
-0.112566
0.242719
-0.111164
-0.107464
-0.106537
25.0797
-0.109013
0.246231
-0.107325
-0.104627
-0.102527
25.0976
-0.406408
0.248698
25.1102
-0.392796
0.250847
25.1187
-0.382225
0.252681
25.1249
-0.377481
0.254898
25.1296
-0.374066
0.256671
25.1327
-0.37113
0.258509
25.135
-0.368786
0.259741
25.1358
-0.367552
0.261186
25.1358
-0.366987
0.26261
25.1361
-0.367722
0.264012
25.1351
-0.367601
0.265354
25.1341
-0.368784
0.266598
25.1336
-0.37004
0.267452
25.1323
-0.370981
0.268607
25.1309
-0.372266
0.26925
25.1301
-0.373419
0.269593
25.1295
-0.374655
0.269576
25.1292
-0.375803
0.26915
25.13
-0.376905
0.268305
-0.377752
0.266457
24.9965
0.00730118
0.00224318
24.9899
0.0183681
0.00463011
24.9787
0.0306649
0.00744461
24.9622
0.0435783
0.0109799
24.939
0.0582264
0.0155925
24.9059
0.0762492
0.0217782
24.8612
0.0969619
0.0302021
24.8034
0.120746
0.0417032
24.7359
0.138446
0.0574639
6.14305
0.0371387
0.0789113
0.0520694
0.0374143
0.0520749
6.16322
6.14313
6.16274
-0.01141
6.12608
0.0158077
0.0173097
-0.0150974
-6.11419
6.10251
-0.0349641
0.0228826
-0.0190495
-6.10659
6.0993
0.0183663
0.0288822
-0.0231822
-6.11467
6.14662
-0.258158
0.0350517
-0.026422
-6.16456
6.17837
-0.154773
0.0397937
-0.0286575
-6.19133
6.20213
-0.141804
0.0430361
-0.0302424
-6.21301
6.22739
-0.143401
0.0454305
-0.0313375
-6.24018
6.24739
-0.139114
0.0471506
-0.0320508
-6.25323
6.2584
-0.13394
0.0482797
-0.032498
-6.26214
6.26606
-0.129497
0.0490627
25.1037
-0.14241
0.27616
-0.142707
-0.141415
-0.139685
-6.2698
-6.27343
-6.26956
-6.27307
25.1118
-0.54522
0.279342
25.1162
-0.530905
0.280504
25.1198
-0.526386
0.28283
25.1213
-0.521774
0.28501
25.1204
-0.51773
0.287425
25.1187
-0.515315
0.289181
25.1156
-0.513627
0.291045
25.1112
-0.512733
0.292764
25.1054
-0.512988
0.294318
25.0992
-0.513217
0.295664
25.0922
-0.514214
0.296761
25.0846
-0.514963
0.297281
25.0769
-0.516119
0.297972
25.0691
-0.51707
0.29791
25.0616
-0.518106
0.297499
25.054
-0.518448
0.296468
25.0471
-0.519186
0.29487
25.0419
-0.520469
0.292636
-0.520677
0.289202
24.9982
0.0071395
0.00197001
24.9929
0.021786
0.00406663
24.9832
0.0372664
0.00653562
24.9684
0.0538631
0.00964634
24.9461
0.0739643
0.0137341
24.9138
0.0995041
0.0190135
24.865
0.132592
0.026919
24.7924
0.174734
0.0375817
6.17342
0.223523
0.0527686
6.16656
6.17389
6.16686
-0.00778014
6.15851
0.0480023
0.0118413
-0.0109444
6.13311
0.0167194
-6.16142
0.019371
0.0109862
0.0195703
0.0107688
-0.0381385
-0.0149776
-6.08079
6.04811
0.0230266
-0.00305023
0.00262979
-0.00303334
0.00256814
0.025408
-0.019927
-6.04709
6.06101
0.0305895
0.051598
-0.0412298
0.0511912
-0.0410657
-0.0452379
-0.0254465
-6.10128
6.14191
0.0384655
-0.051108
-0.129518
-0.0518513
-0.129019
0.307725
-0.0288731
-6.17172
6.18209
0.0429476
-0.0495096
-0.0535365
-0.050462
-0.052656
0.181664
-0.0308234
-6.19469
6.2085
0.0455
-0.0504613
-0.0503551
-0.0512297
-0.0495636
0.173179
-0.0321285
-6.22231
6.23442
0.0474538
-0.0488435
-0.0494013
-0.0494391
-0.0487985
0.169149
-0.0329545
-6.24424
6.25149
0.0487974
-0.0458682
-0.0465387
-0.0466087
-0.0460512
0.162017
-0.0334437
-6.25792
6.26212
0.0496568
-0.0434316
-0.0441351
-0.0439451
-0.0436529
0.154733
-0.0337239
-6.26609
6.26808
0.0502935
-0.0414275
-0.0421281
-0.0417594
-0.0415836
0.14831
-6.27036
-0.0335912
6.27211
-0.161533
0.0509514
25.0469
-0.669724
0.290284
-6.27275
-6.26623
-6.2731
-6.26509
25.0228
-0.661456
0.290949
24.9972
-0.655325
0.290786
24.971
-0.649841
0.289976
24.9455
-0.646205
0.288917
24.9199
-0.643592
0.28777
24.8949
-0.641597
0.285881
24.8703
-0.640332
0.28407
24.8456
-0.639601
0.282089
24.8215
-0.639339
0.279898
24.7983
-0.639381
0.277221
24.7758
-0.63944
0.274761
24.7541
-0.639223
0.271646
24.7337
-0.639028
0.268164
24.7143
-0.638392
0.264275
24.6968
-0.637562
0.259867
24.6811
-0.636736
0.254847
24.6674
-0.636507
0.249164
-0.637663
0.24251
25.002
0.00373344
0.00162596
24.9997
0.0225598
0.003365
24.9919
0.0424686
0.00538721
24.9798
0.0621971
0.00791362
24.9622
0.0861423
0.0112131
24.9361
0.118431
0.0151523
24.8938
0.164158
0.0217623
24.8226
0.230809
0.0302345
6.17267
0.334726
0.0425264
6.17181
6.17294
6.17192
-0.00608896
-0.0628258
6.14738
0.0846828
0.00948238
-0.00196995
-0.0186975
-1.52816
1.52298
0.0232297
0.00261546
-0.00287102
-0.0173897
-1.50495
1.4926
0.0289122
0.00368116
-0.0043372
-1.47047
0.0533663
1.48056
-0.0646275
0.00549856
-0.00646656
-1.52991
0.153831
1.54135
-0.166863
0.00806136
-0.00834322
-1.53764
0.0596452
-0.0631361
1.53948
0.00998348
-1.54832
-0.0089235
0.0588471
-0.0629647
0.0103594
1.55099
-0.00898792
0.0564828
-1.5566
1.55806
-0.0593463
0.010393
-0.00876005
0.0520932
-1.56106
1.56159
-0.0541338
0.0102632
-0.00834888
0.0489166
-1.56218
1.56222
-0.0505912
0.00998509
-0.00790109
0.0462413
-1.56149
1.56105
-0.0475029
0.00959672
-1.55506
-0.0283981
0.173254
6.16394
-0.15928
0.0390787
-1.53873
-1.55516
-1.53966
23.814
-0.772313
0.141026
-6.10213
-5.79205
-6.09205
-5.79982
23.8304
-0.755055
0.144549
23.8458
-0.749221
0.145435
23.8612
-0.743591
0.143832
23.8761
-0.738549
0.141015
23.8903
-0.73385
0.137741
23.9041
-0.72953
0.133586
23.9175
-0.725662
0.12945
23.9304
-0.722284
0.125218
23.9428
-0.719254
0.120936
23.955
-0.716406
0.116391
23.9666
-0.713669
0.112295
23.9781
-0.710813
0.107916
23.9892
-0.707775
0.103511
24.0002
-0.704517
0.0990028
24.011
-0.70105
0.0943026
24.0218
-0.697426
0.0892073
24.0323
-0.693712
0.0833122
-0.689843
0.0757295
25.009
0.00242854
0.00128453
25.0098
0.0205916
0.00258305
25.0064
0.0438997
0.00406993
24.9996
0.0661207
0.00588078
24.9896
0.0921399
0.00816906
24.976
0.127093
0.0106347
24.9564
0.176265
0.0150052
24.9259
0.251285
0.0200146
6.21373
0.37502
0.0267837
6.22188
6.21377
6.22217
-0.00362543
-0.102621
6.19823
0.116024
0.00569913
-0.00108703
-0.0382718
-1.54204
1.53588
0.0440636
0.0014504
-0.00128398
-0.0799734
-1.50597
1.48761
0.0979453
0.00166596
-0.000150135
0.0045926
-0.0749025
0.0751403
-0.00483814
0.000158591
0.00282211
-0.238916
0.0190633
-0.0298453
0.000580061
0.246296
-1.14022
0.00826893
0.0541092
-0.073639
-0.00847163
1.15996
0.00599314
0.046934
-1.20911
1.22151
-0.0560287
-0.00929294
0.00509444
0.0488912
-1.26125
1.27482
-0.0585509
-0.0090008
0.00518569
0.0484186
-1.31023
1.32088
-0.0556896
-0.00857325
0.00572616
0.0481299
-1.34723
1.35598
-0.0545129
-0.00809326
-1.39583
0.0317788
0.184963
5.80083
-0.21467
-0.0407719
-1.49465
-1.37986
-1.4918
24.146
-0.682666
-0.245059
-5.86439
-6.17323
-5.89474
-6.17687
24.173
-0.655971
-0.243349
24.1956
-0.647264
-0.239335
24.2163
-0.641232
-0.235162
24.2357
-0.636492
-0.230728
24.2547
-0.633222
-0.226088
24.2741
-0.631234
-0.221428
24.2939
-0.630006
-0.216868
24.3139
-0.629248
-0.212464
24.3337
-0.628636
-0.208213
24.3531
-0.628127
-0.204129
24.3717
-0.627663
-0.200166
24.3896
-0.627029
-0.196414
24.4063
-0.625837
-0.192835
24.4218
-0.624225
-0.189525
24.436
-0.622187
-0.186609
24.4492
-0.619713
-0.184384
24.4615
-0.616385
-0.183234
-0.611255
-0.183943
25.0084
-0.00274646
0.000882246
25.0155
0.0126081
0.00175273
25.0223
0.0358518
0.00268131
25.0262
0.0603787
0.00372294
25.0255
0.0903823
0.00490539
25.0298
0.119912
0.00596579
25.0417
0.160638
0.00755472
25.0697
0.218872
0.0086161
6.2758
0.307161
0.00886998
6.28817
6.27723
6.2916
-0.000900231
-0.107712
6.2832
0.0998107
0.00143332
-0.000103078
-0.0435322
-1.57774
1.5794
0.0418487
0.000135399
0.000506143
-0.0801161
-1.59959
1.61599
0.0638077
-0.000583169
0.00264413
-0.0261044
-1.71143
1.74938
0.0579026
-0.00193114
-0.0215362
-0.02703
-0.0218991
0.00425233
0.111968
-1.70911
1.67802
-0.0799717
-0.00515516
0.105587
-1.60822
0.00609623
1.59741
-0.0935096
-0.00733505
0.00718969
0.0746655
-1.58301
-0.00850034
1.58098
-0.0713016
0.00771258
0.0545575
-1.57791
1.57644
-0.0516705
-0.00912009
0.00785832
0.0562904
-1.57562
1.57418
-0.0532813
-0.00942251
0.00788369
0.0505601
-1.57332
1.57265
-0.0481992
-0.00957809
0.00782033
0.0470476
-1.56982
1.57012
-0.0455609
-0.00960267
-1.57022
0.0312066
0.178852
6.27537
-0.15634
-0.0469697
-1.57027
-1.57052
-1.5711
25.0895
-0.522062
-0.270184
-6.27805
-6.27082
-6.28355
-6.27608
25.0882
-0.513414
-0.269463
25.0837
-0.502084
-0.26775
25.0789
-0.495652
-0.266761
25.0742
-0.490844
-0.266076
25.0706
-0.488304
-0.265491
25.0675
-0.486691
-0.265051
25.065
-0.485892
-0.264791
25.0631
-0.48557
-0.264708
25.0616
-0.485217
-0.264775
25.0606
-0.485087
-0.264968
25.0602
-0.485109
-0.265469
25.0599
-0.484834
-0.265546
25.0595
-0.483674
-0.265871
25.0597
-0.482934
-0.266213
25.0602
-0.481326
-0.266699
25.061
-0.479191
-0.267461
25.0622
-0.475992
-0.26865
-0.472251
-0.27015
25.0071
-0.00745483
0.00050386
25.0173
0.00186849
0.000962412
25.0316
0.0208811
0.00136159
25.0401
0.0510059
0.00167271
25.0577
0.0717498
0.00180406
25.0811
0.0956093
0.00157004
25.1188
0.122518
0.000617673
25.1838
0.154578
-0.00173573
6.32935
0.194646
-0.00669477
6.31864
6.33373
6.31754
-0.0847703
0.00142749
6.34755
0.0673231
-0.00218359
-0.0325015
0.00338994
6.42057
0.0858877
-0.00488582
-0.0304984
-0.0326705
-0.0295492
-6.3798
-0.0287194
0.00703392
6.4908
0.0789576
-0.0101109
-0.0281351
-0.0276585
-0.0302787
-6.45184
-0.00858596
0.0124338
-6.53844
6.49726
-0.0606836
-0.0185446
0.0635396
-0.00976623
0.0629106
0.0357605
0.0190917
-6.48983
6.47156
-0.146484
-0.0283138
0.0521217
0.0349771
0.0512657
0.0586364
-6.4483
0.0246084
6.40511
-0.184768
-0.036203
0.0577428
0.06209
0.0611892
0.0563723
0.0281295
-6.36531
6.33762
-0.178667
-0.0414263
0.0544288
0.0553657
0.0534888
0.0460448
0.0304633
-6.32385
6.31675
-0.159792
-0.044944
0.0453301
0.0452597
0.0446668
0.0445667
0.031868
-6.31256
6.30474
-0.154643
-0.0471108
0.0449765
0.0438603
0.0442568
0.0435737
0.0325115
-6.29625
6.28754
-0.143458
-0.0482605
0.0410264
0.0429323
0.0403807
0.0384627
0.0327517
-6.28041
6.27293
-0.125837
-0.0487838
0.0354679
0.0388636
0.0365672
0.136486
-6.2718
0.0328837
6.27246
-0.121001
-0.0490184
25.0761
-0.379754
-0.266373
-6.27124
-6.26911
-6.27157
-6.26869
25.0705
-0.371308
-0.264518
25.0671
-0.36361
-0.262623
25.0642
-0.358229
-0.261469
25.0623
-0.354933
-0.260531
25.0604
-0.352689
-0.25971
25.0589
-0.351848
-0.259036
25.0579
-0.35163
-0.258517
25.0567
-0.351302
-0.258138
25.0562
-0.351658
-0.257872
25.0556
-0.351534
-0.257659
25.0554
-0.351785