/*--------------------------------*- C++ -*----------------------------------*\
| =========                 |                                                 |
| \\      /  F ield         | OpenFOAM: The Open Source CFD Toolbox           |
|  \\    /   O peration     | Version:  2306                                  |
|   \\  /    A nd           | Website:  www.openfoam.com                      |
|    \\/     M anipulation  |                                                 |
\*---------------------------------------------------------------------------*/
FoamFile
{
    version     2.0;
    format      ascii;
    arch        "LSB;label=32;scalar=64";
    class       volVectorField;
    location    "1.3";
    object      U;
}
// * * * * * * * * * * * * * * * * * * * * * * * * * * * * * * * * * * * * * //

dimensions      [0 1 -1 0 0 0 0];

internalField   nonuniform List<vector> 
111542
(
(99.9932 0.0055028 0.00279624)
(99.9706 0.0111191 0.00589425)
(99.9289 0.0168286 0.0093659)
(99.8669 0.0227957 0.0136388)
(99.7833 0.0287778 0.0190661)
(99.6763 0.0340086 0.0260724)
(99.545 0.0366339 0.0349081)
(99.3917 0.0336858 0.0460627)
(99.226 0.0205223 0.0600487)
(99.068 -0.0092711 0.0769379)
(98.9506 -0.0613134 0.0963063)
(98.9142 -0.13327 0.117419)
(98.9845 -0.206977 0.139477)
(99.1513 -0.262715 0.160436)
(99.3694 -0.289861 0.178566)
(99.5902 -0.298107 0.193257)
(99.7872 -0.296439 0.204322)
(99.9533 -0.289492 0.212333)
(100.09 -0.280176 0.217929)
(100.199 -0.270561 0.22188)
(100.285 -0.262061 0.224535)
(100.351 -0.254965 0.226441)
(100.402 -0.249085 0.22815)
(100.441 -0.24484 0.229663)
(100.47 -0.242101 0.23117)
(100.493 -0.240437 0.232962)
(100.511 -0.239932 0.234832)
(100.524 -0.240394 0.236778)
(100.533 -0.241445 0.238896)
(100.539 -0.242876 0.241109)
(100.544 -0.244564 0.243297)
(100.546 -0.246463 0.24531)
(100.547 -0.248342 0.247219)
(100.548 -0.250122 0.248974)
(100.55 -0.251787 0.250489)
(100.552 -0.253358 0.251679)
(100.555 -0.254905 0.252421)
(100.561 -0.256316 0.252814)
(100.569 -0.257641 0.252858)
(100.584 -0.25913 0.252584)
(99.9935 0.0163899 0.00274316)
(99.9713 0.0330638 0.00570922)
(99.9301 0.0504176 0.0091427)
(99.8685 0.0688604 0.0133677)
(99.7843 0.08784 0.0187304)
(99.674 0.105308 0.0256469)
(99.5345 0.116373 0.0345564)
(99.3654 0.112237 0.0459789)
(99.173 0.078273 0.0604041)
(98.976 -0.00658905 0.0780322)
(98.8158 -0.159671 0.098727)
(98.7581 -0.37433 0.120874)
(98.8468 -0.597971 0.144813)
(99.0593 -0.758614 0.167805)
(99.3223 -0.837667 0.187435)
(99.5713 -0.865115 0.202818)
(99.783 -0.863296 0.214189)
(99.9564 -0.845394 0.222298)
(100.095 -0.8205 0.227961)
(100.204 -0.794054 0.231902)
(100.287 -0.769716 0.234669)
(100.351 -0.749888 0.236792)
(100.399 -0.734627 0.238625)
(100.434 -0.723641 0.240328)
(100.462 -0.715191 0.242059)
(100.483 -0.70822 0.243955)
(100.499 -0.703119 0.246013)
(100.511 -0.699975 0.248207)
(100.519 -0.69841 0.250506)
(100.525 -0.698147 0.252843)
(100.528 -0.699013 0.25514)
(100.53 -0.700875 0.257329)
(100.531 -0.703373 0.259381)
(100.532 -0.706309 0.26125)
(100.533 -0.709581 0.26287)
(100.534 -0.713137 0.264177)
(100.537 -0.716984 0.265105)
(100.541 -0.720917 0.265636)
(100.549 -0.724906 0.265766)
(100.561 -0.729018 0.265595)
(99.9938 0.0268689 0.00260574)
(99.9727 0.0543118 0.00541049)
(99.9332 0.0836383 0.00868483)
(99.8731 0.115754 0.0127365)
(99.7886 0.150449 0.017923)
(99.6738 0.185443 0.0247012)
(99.5208 0.214472 0.033622)
(99.3225 0.223939 0.0453361)
(99.0761 0.187217 0.0605442)
(98.799 0.0558558 0.0798335)
(98.5506 -0.278932 0.103548)
(98.4425 -0.7408 0.131108)
(98.5691 -1.15791 0.157307)
(98.8761 -1.39545 0.182679)
(99.2208 -1.49051 0.203863)
(99.5187 -1.51633 0.219831)
(99.7582 -1.4983 0.231222)
(99.9454 -1.45883 0.239076)
(100.089 -1.41234 0.244391)
(100.196 -1.36557 0.247963)
(100.276 -1.32407 0.250329)
(100.333 -1.28741 0.252035)
(100.375 -1.26481 0.253667)
(100.408 -1.25458 0.255521)
(100.435 -1.24948 0.257632)
(100.455 -1.24615 0.259935)
(100.47 -1.24425 0.262335)
(100.479 -1.24383 0.264748)
(100.485 -1.24458 0.267121)
(100.487 -1.24631 0.269431)
(100.488 -1.24887 0.271669)
(100.486 -1.25211 0.273835)
(100.483 -1.25586 0.275928)
(100.479 -1.25996 0.277929)
(100.476 -1.26429 0.279785)
(100.472 -1.26881 0.281422)
(100.47 -1.27349 0.28274)
(100.469 -1.27827 0.283654)
(100.471 -1.28303 0.284128)
(100.478 -1.28737 0.284308)
(99.9945 0.0364646 0.00239111)
(99.9755 0.074094 0.00495863)
(99.9395 0.115303 0.0079635)
(99.8836 0.162187 0.0117087)
(99.8024 0.215998 0.016555)
(99.6864 0.276273 0.0229809)
(99.5214 0.338834 0.0316176)
(99.2866 0.391175 0.0432659)
(98.9534 0.403674 0.0589069)
(98.4582 0.202571 0.0796957)
(98.2028 0.02313 0.0862291)
(97.8606 -0.631801 0.101496)
(97.9292 -1.43218 0.115632)
(98.4091 -1.94514 0.128646)
(98.9097 -2.09489 0.141775)
(99.2999 -2.12551 0.150801)
(99.6112 -2.08777 0.156681)
(99.8449 -2.0155 0.160339)
(100.016 -1.93575 0.162488)
(100.142 -1.86289 0.163691)
(100.303 -1.9179 0.26831)
(100.344 -1.84799 0.268728)
(100.36 -1.79844 0.268907)
(100.372 -1.76901 0.269838)
(100.383 -1.75066 0.271675)
(100.391 -1.73988 0.274093)
(100.391 -1.73496 0.276723)
(100.385 -1.73431 0.279353)
(100.374 -1.73668 0.281906)
(100.358 -1.7413 0.284374)
(100.338 -1.74762 0.286779)
(100.315 -1.7552 0.289155)
(100.289 -1.76365 0.291511)
(100.261 -1.77261 0.293816)
(100.233 -1.78177 0.295989)
(100.204 -1.79095 0.297904)
(100.175 -1.80006 0.29939)
(100.148 -1.8091 0.300281)
(100.124 -1.81793 0.300467)
(100.098 -1.82552 0.300071)
(99.9956 0.0444386 0.00209959)
(99.9801 0.0908082 0.00434628)
(99.9506 0.142855 0.00696959)
(99.9035 0.204426 0.0102464)
(99.8327 0.27938 0.0145107)
(99.7265 0.371483 0.0202051)
(99.5656 0.483578 0.0279395)
(99.3174 0.61438 0.0385089)
(98.8771 0.750618 0.052935)
(98.5347 0.757334 0.0581473)
(97.7267 0.368164 0.0711159)
(96.9276 -0.69577 0.0879022)
(97.0241 -2.34445 0.102795)
(98.1462 -2.95026 0.115909)
(98.8661 -2.98605 0.131739)
(99.3303 -2.94733 0.14125)
(99.6874 -2.83218 0.14744)
(99.927 -2.69725 0.151824)
(100.086 -2.56939 0.154711)
(100.185 -2.46317 0.156371)
(100.248 -2.40691 0.161224)
(100.17 -2.52016 0.285657)
(100.054 -2.50994 0.274522)
(99.942 -2.48633 0.264337)
(99.8407 -2.45793 0.255978)
(99.7424 -2.43281 0.249612)
(99.6453 -2.41233 0.244997)
(99.5497 -2.39577 0.241882)
(99.4557 -2.38268 0.240067)
(99.3631 -2.37292 0.239371)
(99.2719 -2.3663 0.239616)
(99.1821 -2.36248 0.240625)
(99.0943 -2.36103 0.242195)
(99.0089 -2.36145 0.244084)
(98.9264 -2.36325 0.246012)
(98.8476 -2.36602 0.247671)
(98.7731 -2.36951 0.248718)
(98.704 -2.37381 0.248834)
(98.6423 -2.37962 0.247771)
(98.5825 -2.38913 0.245478)
(99.9971 0.0498622 0.00173804)
(99.9868 0.102414 0.0035855)
(99.9669 0.162684 0.00571913)
(99.9345 0.236379 0.0083604)
(99.884 0.330446 0.01177)
(99.8051 0.454287 0.0162818)
(99.6786 0.62163 0.0223416)
(99.4678 0.852848 0.030493)
(99.0494 1.17948 0.0413644)
(98.6414 1.3408 0.0455847)
(97.6903 1.48185 0.043483)
(95.5882 0.713419 0.0400061)
(94.3917 -3.42777 0.0552582)
(98.1832 -4.72402 0.0471084)
(98.7002 -3.95243 0.0668418)
(99.2699 -3.91577 0.0974977)
(99.6492 -3.72317 0.112535)
(99.803 -3.50737 0.11303)
(99.827 -3.31288 0.102179)
(99.7618 -3.11988 0.0830817)
(98.5179 -2.87795 0.182674)
(95.2688 -2.44243 0.190779)
(95.3301 -2.51152 0.171293)
(95.3989 -2.54792 0.154923)
(95.4504 -2.56781 0.140196)
(95.4913 -2.58194 0.12716)
(95.5305 -2.59279 0.115868)
(95.5714 -2.60096 0.106235)
(95.6139 -2.60738 0.0980478)
(95.6577 -2.61315 0.0909864)
(95.7025 -2.61908 0.0846869)
(95.7479 -2.62563 0.078813)
(95.7937 -2.63289 0.0730872)
(95.8396 -2.64067 0.0673154)
(95.8854 -2.64859 0.0613666)
(95.931 -2.65621 0.0551423)
(95.9765 -2.66318 0.0485407)
(96.0219 -2.66943 0.0414304)
(96.0664 -2.67561 0.0336861)
(96.1165 -2.6841 0.0255291)
(99.9989 0.0518185 0.00135697)
(99.9952 0.106853 0.00273796)
(99.9877 0.170945 0.00429078)
(99.975 0.251065 0.00616339)
(99.9547 0.35635 0.00850013)
(99.9217 0.500489 0.011462)
(99.8679 0.705634 0.0152097)
(99.7787 1.01045 0.0198188)
(99.6066 1.48841 0.0250961)
(99.3393 1.88839 0.0272046)
(98.6218 2.82438 0.0243346)
(95.4834 5.82166 0.0191029)
(77.127 -4.26949 0.0229204)
(102.708 -10.284 0.0238372)
(59.9042 -5.76683 -0.0156753)
(77.5921 -4.97508 0.0326482)
(81.5487 -4.25071 -0.0619871)
(84.1794 -3.87398 -0.0540377)
(85.9753 -3.59024 0.0111372)
(87.2626 -3.37896 0.0938644)
(93.3668 -3.87983 -0.11387)
(96.2556 -3.30038 -0.250055)
(96.4116 -3.17476 -0.229543)
(96.5745 -3.08668 -0.212407)
(96.7062 -3.02298 -0.199436)
(96.8143 -2.9738 -0.190272)
(96.9096 -2.9345 -0.184256)
(96.997 -2.90254 -0.180916)
(97.0788 -2.87622 -0.179914)
(97.1568 -2.85434 -0.180952)
(97.2326 -2.83599 -0.183726)
(97.3072 -2.82042 -0.187904)
(97.381 -2.80696 -0.193122)
(97.4539 -2.79494 -0.198991)
(97.5257 -2.78377 -0.205142)
(97.5958 -2.77291 -0.211262)
(97.6639 -2.76185 -0.217165)
(97.7296 -2.75009 -0.222799)
(97.7924 -2.73682 -0.228246)
(97.8653 -2.72004 -0.233493)
(100.001 0.0498344 0.00097116)
(100.004 0.102852 0.00186947)
(100.01 0.165079 0.00281225)
(100.02 0.243601 0.00385977)
(100.034 0.347734 0.00502739)
(100.054 0.491232 0.00627558)
(100.088 0.695617 0.00745106)
(100.151 0.996728 0.00813932)
(100.296 1.45669 0.00738129)
(100.344 1.86695 0.00704297)
(100.621 2.85087 0.00296538)
(102.444 5.37614 -0.00516309)
(111.182 3.87967 -0.0454932)
(109.044 -6.76187 0.023199)
(102.76 -6.79991 -0.0458108)
(101.101 -5.01481 -0.0715317)
(100.654 -4.02957 -0.0768733)
(100.485 -3.48594 -0.0755231)
(100.406 -3.16371 -0.0723054)
(100.343 -2.96726 -0.0688783)
(100.264 -2.71685 -0.153403)
(100.299 -2.27575 -0.266414)
(100.286 -2.17169 -0.258586)
(100.278 -2.11279 -0.25068)
(100.27 -2.08148 -0.244296)
(100.261 -2.06379 -0.239726)
(100.251 -2.05421 -0.236748)
(100.241 -2.0505 -0.23518)
(100.232 -2.05099 -0.234899)
(100.224 -2.05421 -0.235776)
(100.217 -2.059 -0.237669)
(100.211 -2.06445 -0.240426)
(100.206 -2.06983 -0.243884)
(100.202 -2.07453 -0.247869)
(100.2 -2.07808 -0.252209)
(100.198 -2.08008 -0.256759)
(100.198 -2.0802 -0.261427)
(100.2 -2.07801 -0.266177)
(100.205 -2.07274 -0.271002)
(100.217 -2.0626 -0.275741)
(100.003 0.0436695 0.00050624)
(100.013 0.0901752 0.000961616)
(100.031 0.144805 0.00134387)
(100.061 0.21363 0.00161371)
(100.106 0.30428 0.00167911)
(100.173 0.427017 0.00133823)
(100.277 0.596072 0.000189432)
(100.444 0.830904 -0.00250622)
(100.761 1.15582 -0.0081033)
(100.986 1.39461 -0.0102949)
(101.839 1.84905 -0.0179848)
(103.454 1.74929 -0.0322144)
(105.234 -0.265316 -0.0495071)
(104.767 -2.8505 -0.0306772)
(102.959 -3.56282 -0.0516152)
(101.741 -3.33966 -0.0696412)
(101.114 -2.98222 -0.0810682)
(100.782 -2.67919 -0.0879789)
(100.593 -2.45071 -0.0922355)
(100.471 -2.27939 -0.0951291)
(100.388 -2.14302 -0.0982747)
(100.301 -1.85177 -0.253954)
(100.272 -1.81499 -0.252072)
(100.254 -1.79005 -0.250237)
(100.242 -1.77524 -0.249037)
(100.234 -1.76626 -0.248426)
(100.227 -1.76046 -0.248195)
(100.221 -1.75671 -0.248233)
(100.216 -1.75429 -0.248512)
(100.211 -1.75252 -0.249024)
(100.207 -1.75085 -0.249761)
(100.204 -1.74889 -0.250704)
(100.202 -1.74634 -0.251818)
(100.2 -1.74298 -0.25305)
(100.2 -1.73861 -0.25435)
(100.2 -1.73308 -0.255685)
(100.203 -1.72625 -0.257054)
(100.207 -1.71794 -0.258501)
(100.215 -1.70808 -0.260119)
(100.234 -1.69702 -0.262083)
(100.004 0.0338303 0.000186216)
(100.02 0.0699267 0.000278196)
(100.049 0.112184 0.00017465)
(100.095 0.165005 -0.000217876)
(100.162 0.233499 -0.00106171)
(100.261 0.32356 -0.00267161)
(100.407 0.441484 -0.00557875)
(100.626 0.591685 -0.010646)
(100.959 0.770235 -0.0192593)
(101.444 0.852779 -0.0331568)
(102.082 0.753051 -0.0540348)
(102.756 0.222399 -0.0830099)
(103.109 -0.767038 -0.116243)
(102.856 -1.59621 -0.147112)
(102.21 -1.8987 -0.178367)
(101.579 -1.89959 -0.203405)
(101.135 -1.80899 -0.219969)
(100.851 -1.69934 -0.229991)
(100.663 -1.59518 -0.235836)
(100.534 -1.50296 -0.239048)
(100.447 -1.42342 -0.240558)
(100.389 -1.35351 -0.24088)
(100.351 -1.29796 -0.240547)
(100.323 -1.25393 -0.240138)
(100.302 -1.22065 -0.239966)
(100.287 -1.19634 -0.240139)
(100.273 -1.17882 -0.240663)
(100.261 -1.16647 -0.241504)
(100.251 -1.158 -0.242608)
(100.242 -1.15237 -0.243911)
(100.235 -1.14866 -0.245352)
(100.228 -1.14613 -0.246871)
(100.223 -1.14417 -0.248419)
(100.219 -1.1423 -0.249949)
(100.216 -1.14009 -0.25144)
(100.216 -1.13728 -0.252887)
(100.217 -1.13365 -0.254313)
(100.22 -1.12907 -0.255771)
(100.226 -1.12354 -0.257358)
(100.237 -1.11742 -0.25922)
(100.005 0.0213992 -7.43785e-05)
(100.024 0.0441219 -0.00028481)
(100.06 0.070709 -0.000750684)
(100.117 0.103541 -0.00160271)
(100.199 0.145544 -0.00307707)
(100.315 0.199161 -0.00552231)
(100.479 0.265862 -0.00949785)
(100.706 0.343121 -0.015784)
(101.015 0.417922 -0.0254546)
(101.414 0.450829 -0.0397428)
(101.876 0.385598 -0.0598199)
(102.302 0.14773 -0.0863134)
(102.52 -0.272762 -0.116986)
(102.399 -0.700776 -0.147413)
(102.009 -0.942507 -0.175369)
(101.551 -0.999267 -0.197663)
(101.175 -0.967801 -0.213467)
(100.907 -0.910986 -0.223601)
(100.717 -0.852344 -0.229759)
(100.578 -0.798694 -0.233268)
(100.477 -0.75298 -0.235041)
(100.404 -0.718366 -0.23572)
(100.35 -0.694578 -0.235833)
(100.311 -0.679364 -0.235744)
(100.281 -0.670755 -0.235717)
(100.259 -0.667165 -0.235898)
(100.242 -0.667044 -0.236344)
(100.228 -0.669122 -0.237041)
(100.217 -0.672498 -0.237937)
(100.208 -0.676523 -0.238966)
(100.202 -0.680689 -0.240057)
(100.197 -0.684626 -0.241143)
(100.193 -0.688066 -0.242164)
(100.191 -0.690866 -0.243074)
(100.19 -0.692648 -0.24388)
(100.191 -0.693492 -0.244561)
(100.194 -0.693401 -0.245139)
(100.199 -0.692378 -0.245685)
(100.208 -0.690497 -0.246331)
(100.225 -0.687805 -0.247341)
(100.006 0.00731824 -0.000234532)
(100.027 0.0150482 -0.000567344)
(100.066 0.0241227 -0.00125206)
(100.127 0.035192 -0.00228785)
(100.216 0.0493017 -0.00410106)
(100.34 0.0670116 -0.00697375)
(100.509 0.0883281 -0.0114991)
(100.735 0.111755 -0.018339)
(101.025 0.132144 -0.0285581)
(101.372 0.136816 -0.0428811)
(101.742 0.105829 -0.0620413)
(102.06 0.0186827 -0.086115)
(102.221 -0.120723 -0.113721)
(102.15 -0.264775 -0.142008)
(101.874 -0.355902 -0.167448)
(101.513 -0.383642 -0.188232)
(101.182 -0.377 -0.203609)
(100.924 -0.360448 -0.213755)
(100.733 -0.343112 -0.220033)
(100.591 -0.327281 -0.223652)
(100.485 -0.313756 -0.225564)
(100.407 -0.303063 -0.22643)
(100.351 -0.294611 -0.226738)
(100.31 -0.287662 -0.22677)
(100.279 -0.281567 -0.226894)
(100.257 -0.276039 -0.22726)
(100.239 -0.27089 -0.227903)
(100.225 -0.265992 -0.228811)
(100.214 -0.261296 -0.229931)
(100.205 -0.256793 -0.231193)
(100.198 -0.252474 -0.232517)
(100.192 -0.248327 -0.233821)
(100.188 -0.244347 -0.235028)
(100.185 -0.240555 -0.236037)
(100.184 -0.236722 -0.237028)
(100.184 -0.23295 -0.23787)
(100.186 -0.229264 -0.23856)
(100.191 -0.225678 -0.239176)
(100.198 -0.22233 -0.239855)
(100.211 -0.219744 -0.240885)
(99.9936 0.00545014 0.00808865)
(99.972 0.010935 0.0169218)
(99.9319 0.016608 0.0270566)
(99.8727 0.02253 0.039529)
(99.7929 0.0284503 0.0553412)
(99.6904 0.0335971 0.0756661)
(99.5646 0.0363002 0.101538)
(99.4178 0.0336216 0.134345)
(99.2592 0.0209003 0.17537)
(99.1077 -0.00816925 0.224945)
(98.9956 -0.058963 0.282377)
(98.9625 -0.129827 0.34536)
(99.033 -0.201299 0.410148)
(99.1968 -0.254646 0.471312)
(99.4106 -0.280204 0.52405)
(99.627 -0.287674 0.56655)
(99.82 -0.285659 0.598711)
(99.9828 -0.278594 0.622053)
(100.116 -0.269208 0.63841)
(100.222 -0.259636 0.649762)
(100.305 -0.250973 0.657485)
(100.367 -0.243622 0.663097)
(100.414 -0.237587 0.667864)
(100.448 -0.233122 0.672046)
(100.474 -0.230124 0.675946)
(100.493 -0.228326 0.679955)
(100.507 -0.227601 0.683888)
(100.517 -0.227785 0.687803)
(100.524 -0.228632 0.691857)
(100.529 -0.229924 0.695948)
(100.533 -0.23149 0.699885)
(100.535 -0.233202 0.703443)
(100.537 -0.234938 0.706657)
(100.539 -0.236617 0.709405)
(100.542 -0.238194 0.711513)
(100.546 -0.239669 0.712818)
(100.55 -0.241056 0.713134)
(100.557 -0.242356 0.712534)
(100.567 -0.243627 0.710948)
(100.584 -0.245039 0.708297)
(99.9939 0.0162006 0.0079119)
(99.9726 0.0325834 0.0164695)
(99.9332 0.0497435 0.0264319)
(99.8743 0.0679709 0.0387231)
(99.7937 0.0867189 0.0543575)
(99.6879 0.10398 0.0745578)
(99.5541 0.115155 0.100686)
(99.3918 0.111603 0.134317)
(99.2066 0.0788744 0.176941)
(99.0169 -0.00361343 0.229417)
(98.8619 -0.152617 0.291398)
(98.8079 -0.360534 0.36042)
(98.8971 -0.578831 0.43217)
(99.1051 -0.735927 0.499467)
(99.3618 -0.811812 0.555982)
(99.6047 -0.837889 0.600094)
(99.8115 -0.835702 0.632737)
(99.9809 -0.817947 0.656033)
(100.116 -0.793344 0.672255)
(100.222 -0.767255 0.683421)
(100.302 -0.743153 0.691217)
(100.362 -0.723458 0.697406)
(100.407 -0.708182 0.702849)
(100.439 -0.696733 0.707599)
(100.464 -0.68754 0.711786)
(100.482 -0.679905 0.71573)
(100.496 -0.674129 0.719615)
(100.506 -0.670402 0.723554)
(100.513 -0.668495 0.727584)
(100.518 -0.668096 0.73163)
(100.521 -0.668922 0.735561)
(100.523 -0.670699 0.739233)
(100.525 -0.673118 0.742545)
(100.526 -0.675961 0.745364)
(100.528 -0.679081 0.747532)
(100.53 -0.682385 0.748902)
(100.534 -0.685863 0.749336)
(100.539 -0.68948 0.748761)
(100.547 -0.693212 0.747102)
(100.561 -0.697025 0.744354)
(99.9942 0.0265183 0.0075146)
(99.974 0.0535663 0.0156285)
(99.9362 0.0824701 0.0251315)
(99.8786 0.114116 0.0369358)
(99.7977 0.148308 0.0521043)
(99.6874 0.182851 0.0719898)
(99.5404 0.211661 0.0982655)
(99.3493 0.221428 0.132946)
(99.1114 0.185991 0.178215)
(98.8434 0.0576807 0.235942)
(98.6037 -0.26983 0.306717)
(98.4986 -0.721375 0.387832)
(98.6214 -1.12812 0.470764)
(98.9206 -1.35913 0.547335)
(99.2563 -1.45091 0.608996)
(99.5466 -1.47604 0.655035)
(99.7806 -1.45824 0.687906)
(99.9634 -1.41913 0.710617)
(100.103 -1.37274 0.725968)
(100.206 -1.32574 0.736312)
(100.282 -1.28425 0.743521)
(100.337 -1.24861 0.750085)
(100.378 -1.22655 0.756768)
(100.409 -1.21567 0.763034)
(100.435 -1.2089 0.768538)
(100.454 -1.20349 0.773356)
(100.468 -1.19964 0.777685)
(100.476 -1.19766 0.781676)
(100.482 -1.19738 0.785416)
(100.484 -1.19854 0.788931)
(100.484 -1.20084 0.792183)
(100.483 -1.20401 0.795102)
(100.481 -1.20774 0.797591)
(100.478 -1.21177 0.799525)
(100.475 -1.21593 0.800762)
(100.472 -1.22018 0.801145)
(100.47 -1.22453 0.800513)
(100.469 -1.22903 0.798728)
(100.472 -1.23365 0.795729)
(100.479 -1.23795 0.791702)
(99.9948 0.0359611 0.00689696)
(99.9767 0.0730373 0.0143373)
(99.9423 0.113603 0.02308)
(99.8888 0.159725 0.0340228)
(99.8109 0.212636 0.0482509)
(99.6994 0.27188 0.0672034)
(99.5402 0.333342 0.0928236)
(99.3132 0.384681 0.127643)
(98.9899 0.396588 0.174829)
(98.5073 0.198226 0.238093)
(98.2529 0.015648 0.269973)
(97.917 -0.641938 0.3443)
(97.9865 -1.4361 0.425037)
(98.4601 -1.94836 0.502238)
(98.9482 -2.0965 0.564241)
(99.3284 -2.12888 0.608728)
(99.6334 -2.09327 0.639288)
(99.8626 -2.02197 0.659458)
(100.03 -1.94194 0.672245)
(100.153 -1.86773 0.680424)
(100.299 -1.89342 0.809913)
(100.339 -1.82685 0.81932)
(100.358 -1.77856 0.827027)
(100.372 -1.74879 0.833705)
(100.387 -1.72884 0.839988)
(100.396 -1.71586 0.845803)
(100.397 -1.7089 0.850983)
(100.391 -1.70678 0.855532)
(100.379 -1.70833 0.859522)
(100.362 -1.71261 0.862983)
(100.341 -1.71878 0.865892)
(100.317 -1.72611 0.868177)
(100.29 -1.73391 0.869725)
(100.262 -1.7417 0.870384)
(100.233 -1.74913 0.869983)
(100.204 -1.75612 0.868331)
(100.175 -1.76277 0.865215)
(100.149 -1.76935 0.860418)
(100.125 -1.77604 0.853773)
(100.103 -1.78206 0.845325)
(99.9959 0.043789 0.0060568)
(99.9812 0.0894449 0.012581)
(99.953 0.14063 0.0202372)
(99.908 0.201111 0.0298465)
(99.84 0.274654 0.0424226)
(99.7379 0.3649 0.0593341)
(99.5823 0.474525 0.0825045)
(99.3411 0.602022 0.114546)
(98.9111 0.733781 0.158892)
(98.5716 0.735139 0.184001)
(97.7746 0.343998 0.247561)
(96.9856 -0.715477 0.330635)
(97.084 -2.3443 0.429229)
(98.1921 -2.93945 0.522106)
(98.8894 -2.96209 0.590053)
(99.3379 -2.92571 0.629867)
(99.6887 -2.81539 0.653373)
(99.9244 -2.68433 0.666881)
(100.08 -2.5599 0.673685)
(100.177 -2.45754 0.677046)
(100.24 -2.40116 0.675933)
(100.137 -2.55214 0.824529)
(100.023 -2.53551 0.832922)
(99.9154 -2.50341 0.835741)
(99.819 -2.46777 0.836001)
(99.7248 -2.43764 0.834297)
(99.6303 -2.41459 0.83052)
(99.5356 -2.39773 0.824935)
(99.4411 -2.38611 0.818016)
(99.347 -2.37885 0.810188)
(99.254 -2.37497 0.801747)
(99.1626 -2.3734 0.792853)
(99.0738 -2.37316 0.783533)
(98.9885 -2.37344 0.773722)
(98.9073 -2.37367 0.763276)
(98.8308 -2.3736 0.752001)
(98.7596 -2.37332 0.739607)
(98.6944 -2.37342 0.725732)
(98.6371 -2.37512 0.709995)
(98.5834 -2.38097 0.69244)
(99.9973 0.0491227 0.00500285)
(99.9877 0.100816 0.010392)
(99.9688 0.160023 0.0166497)
(99.9379 0.232327 0.0244357)
(99.8897 0.324489 0.0345561)
(99.8137 0.445646 0.0480766)
(99.6911 0.609102 0.066457)
(99.4854 0.834553 0.0916455)
(99.0734 1.15239 0.126106)
(98.6674 1.30943 0.14648)
(97.7208 1.44342 0.174132)
(95.6319 0.668156 0.227898)
(94.4491 -3.45374 0.334601)
(98.2564 -4.71068 0.466951)
(98.7612 -3.87187 0.606411)
(99.2981 -3.79149 0.642667)
(99.6738 -3.58375 0.627806)
(99.8308 -3.36015 0.591726)
(99.8546 -3.17147 0.551593)
(99.7852 -2.99919 0.51777)
(98.68 -2.74 0.482164)
(95.076 -2.5837 0.36213)
(95.1514 -2.67024 0.37442)
(95.2415 -2.71244 0.382219)
(95.3187 -2.7315 0.385903)
(95.386 -2.7415 0.386186)
(95.4495 -2.747 0.383483)
(95.5109 -2.74987 0.378393)
(95.5702 -2.75157 0.371622)
(95.627 -2.75293 0.363777)
(95.6814 -2.75407 0.355291)
(95.7336 -2.75464 0.346455)
(95.7838 -2.7541 0.337372)
(95.8324 -2.75196 0.328061)
(95.8798 -2.74791 0.318449)
(95.9263 -2.74195 0.308342)
(95.9722 -2.73439 0.297374)
(96.0176 -2.72599 0.284922)
(96.0622 -2.71819 0.269962)
(96.1155 -2.71402 0.250797)
(99.9991 0.0510381 0.00392401)
(99.9957 0.10513 0.00795274)
(99.9889 0.168038 0.012529)
(99.9772 0.246574 0.0180834)
(99.958 0.349632 0.0250719)
(99.9266 0.49054 0.0340352)
(99.8746 0.690859 0.0455977)
(99.7872 0.988354 0.0602725)
(99.6159 1.45494 0.0779639)
(99.3485 1.84854 0.0881317)
(98.6296 2.77099 0.0975034)
(95.4903 5.72805 0.104774)
(77.2975 -4.46479 0.178932)
(60.3725 -6.38938 -0.454339)
(72.8025 -4.00116 -0.211194)
(77.2263 -3.36665 -0.219769)
(81.0216 -3.25148 -0.291882)
(84.0658 -3.23007 -0.358891)
(86.3718 -3.227 -0.395763)
(92.397 -3.58498 -0.499935)
(96.4553 -3.39701 -0.713201)
(96.5843 -3.28965 -0.713517)
(96.7109 -3.21391 -0.705075)
(96.8061 -3.15773 -0.692006)
(96.8845 -3.1128 -0.675986)
(96.9597 -3.0755 -0.658237)
(97.0368 -3.04404 -0.640033)
(97.1165 -3.01716 -0.622369)
(97.1978 -2.9938 -0.60583)
(97.2797 -2.97299 -0.590669)
(97.3604 -2.95389 -0.576913)
(97.4386 -2.93579 -0.564458)
(97.513 -2.91812 -0.553185)
(97.5827 -2.90049 -0.543021)
(97.6476 -2.88266 -0.534019)
(97.7075 -2.86446 -0.52647)
(97.7629 -2.84568 -0.520955)
(97.8142 -2.82579 -0.51853)
(97.8741 -2.80304 -0.520936)
(100.001 0.048968 0.0027197)
(100.004 0.101069 0.00538245)
(100.011 0.162133 0.0082137)
(100.02 0.239064 0.0113747)
(100.034 0.340944 0.0149351)
(100.055 0.481151 0.0188359)
(100.088 0.68067 0.0227131)
(100.149 0.974558 0.0255028)
(100.289 1.42391 0.0245487)
(100.336 1.82816 0.0226339)
(100.604 2.80049 0.0104921)
(102.402 5.3085 -0.0370861)
(110.996 3.98147 -0.14427)
(108.967 -6.63333 -0.286657)
(102.727 -6.72818 -0.425754)
(101.112 -4.90857 -0.50194)
(100.69 -3.91303 -0.532756)
(100.535 -3.37915 -0.542539)
(100.459 -3.07671 -0.544825)
(100.394 -2.90236 -0.54493)
(100.296 -2.70163 -0.612122)
(100.318 -2.30835 -0.777535)
(100.298 -2.20354 -0.777427)
(100.28 -2.1429 -0.772288)
(100.265 -2.11018 -0.766724)
(100.25 -2.09224 -0.761645)
(100.237 -2.08381 -0.756878)
(100.226 -2.0824 -0.752473)
(100.217 -2.08582 -0.748597)
(100.211 -2.09205 -0.745348)
(100.207 -2.09947 -0.74276)
(100.204 -2.10686 -0.740818)
(100.203 -2.11334 -0.739457)
(100.203 -2.11834 -0.738579)
(100.203 -2.12153 -0.738148)
(100.205 -2.1227 -0.738195)
(100.207 -2.1217 -0.738908)
(100.21 -2.11826 -0.740632)
(100.215 -2.11167 -0.743835)
(100.228 -2.10041 -0.748634)
(100.003 0.0428749 0.00149331)
(100.013 0.0885777 0.00287907)
(100.031 0.142164 0.00407509)
(100.061 0.209569 0.00497273)
(100.104 0.298224 0.00530047)
(100.17 0.418104 0.00448473)
(100.271 0.583091 0.00140096)
(100.433 0.812184 -0.00604814)
(100.742 1.12916 -0.0217684)
(100.963 1.36381 -0.032699)
(101.799 1.81099 -0.0706456)
(103.393 1.70959 -0.143065)
(105.152 -0.277367 -0.250846)
(104.692 -2.83374 -0.369403)
(102.919 -3.55408 -0.466683)
(101.72 -3.32991 -0.536419)
(101.106 -2.97512 -0.581732)
(100.782 -2.67568 -0.608017)
(100.598 -2.45 -0.622403)
(100.479 -2.28096 -0.630163)
(100.397 -2.14466 -0.63354)
(100.308 -1.84194 -0.778576)
(100.279 -1.80798 -0.775769)
(100.259 -1.78554 -0.771471)
(100.247 -1.77218 -0.767065)
(100.238 -1.76381 -0.762843)
(100.23 -1.75823 -0.758864)
(100.224 -1.75456 -0.755257)
(100.219 -1.75211 -0.752134)
(100.215 -1.75019 -0.749511)
(100.212 -1.74819 -0.747343)
(100.209 -1.74565 -0.745547)
(100.206 -1.74223 -0.744038)
(100.205 -1.7377 -0.742727)
(100.205 -1.73187 -0.741615)
(100.205 -1.72461 -0.740772)
(100.207 -1.71584 -0.740386)
(100.211 -1.70541 -0.740757)
(100.218 -1.69331 -0.742276)
(100.234 -1.68019 -0.745327)
(100.004 0.0332426 0.000536764)
(100.019 0.068669 0.00082569)
(100.048 0.110086 0.000621427)
(100.092 0.161823 -0.000368463)
(100.159 0.228778 -0.00267552)
(100.255 0.316732 -0.00720296)
(100.397 0.431821 -0.0154683)
(100.609 0.578338 -0.0299636)
(100.933 0.752342 -0.0546941)
(101.405 0.833316 -0.0951603)
(102.027 0.736165 -0.156976)
(102.686 0.217036 -0.244657)
(103.032 -0.747922 -0.351331)
(102.784 -1.56177 -0.465803)
(102.151 -1.86031 -0.563293)
(101.536 -1.85951 -0.633751)
(101.104 -1.76905 -0.679232)
(100.828 -1.66062 -0.706443)
(100.647 -1.5576 -0.721883)
(100.522 -1.46612 -0.729828)
(100.439 -1.38729 -0.732869)
(100.385 -1.31869 -0.732627)
(100.349 -1.26474 -0.73152)
(100.323 -1.22198 -0.730273)
(100.304 -1.18937 -0.729037)
(100.29 -1.1654 -0.728044)
(100.278 -1.1482 -0.727527)
(100.267 -1.13625 -0.727591)
(100.258 -1.12829 -0.728214)
(100.249 -1.12321 -0.729299)
(100.241 -1.12003 -0.730714)
(100.234 -1.11792 -0.732319)
(100.229 -1.11625 -0.73399)
(100.224 -1.11451 -0.735622)
(100.22 -1.11231 -0.737183)
(100.218 -1.10936 -0.738706)
(100.218 -1.10545 -0.740309)
(100.22 -1.10044 -0.742195)
(100.224 -1.09437 -0.744631)
(100.233 -1.08766 -0.747816)
(100.005 0.020977 -0.000188534)
(100.024 0.0432878 -0.000709709)
(100.059 0.0693273 -0.00190902)
(100.114 0.101541 -0.00420839)
(100.193 0.142571 -0.00832573)
(100.307 0.194949 -0.0152732)
(100.466 0.260112 -0.0266464)
(100.686 0.33566 -0.044765)
(100.986 0.408791 -0.0727972)
(101.374 0.441172 -0.114575)
(101.823 0.377488 -0.173836)
(102.238 0.144523 -0.25232)
(102.45 -0.268262 -0.345403)
(102.333 -0.687008 -0.441317)
(101.95 -0.920867 -0.526416)
(101.504 -0.973857 -0.591359)
(101.138 -0.941271 -0.635759)
(100.877 -0.884679 -0.664029)
(100.692 -0.826606 -0.68113)
(100.558 -0.77353 -0.690719)
(100.461 -0.728407 -0.695298)
(100.391 -0.694497 -0.69675)
(100.342 -0.671495 -0.69684)
(100.306 -0.656863 -0.696355)
(100.28 -0.648699 -0.695678)
(100.261 -0.645454 -0.695119)
(100.247 -0.645618 -0.694898)
(100.235 -0.647938 -0.695099)
(100.226 -0.65152 -0.695686)
(100.219 -0.655707 -0.696558)
(100.213 -0.659969 -0.697584)
(100.208 -0.663915 -0.698628)
(100.203 -0.667242 -0.699568)
(100.2 -0.669756 -0.700321)
(100.198 -0.671274 -0.700904)
(100.197 -0.671749 -0.701325)
(100.198 -0.67115 -0.701685)
(100.201 -0.669509 -0.702191)
(100.207 -0.666933 -0.703147)
(100.221 -0.663627 -0.704976)
(100.006 0.00715687 -0.000591681)
(100.026 0.0147658 -0.00151309)
(100.064 0.023619 -0.00327465)
(100.124 0.0344982 -0.0061964)
(100.21 0.0482288 -0.0112649)
(100.33 0.0654922 -0.0193709)
(100.494 0.0863051 -0.0321145)
(100.713 0.109225 -0.0516569)
(100.994 0.129097 -0.0808935)
(101.331 0.13374 -0.122512)
(101.691 0.103668 -0.178898)
(101.999 0.0189609 -0.25031)
(102.155 -0.116693 -0.332758)
(102.086 -0.256908 -0.417398)
(101.815 -0.344751 -0.493788)
(101.462 -0.371081 -0.554744)
(101.138 -0.364112 -0.598245)
(100.887 -0.34757 -0.626799)
(100.702 -0.330342 -0.644483)
(100.565 -0.314606 -0.654661)
(100.464 -0.301201 -0.659858)
(100.391 -0.290677 -0.661952)
(100.34 -0.282404 -0.662438)
(100.303 -0.275567 -0.662268)
(100.278 -0.269621 -0.662161)
(100.26 -0.264282 -0.662413)
(100.246 -0.259342 -0.663139)
(100.235 -0.254672 -0.664364)
(100.227 -0.250224 -0.666029)
(100.219 -0.245979 -0.668007)
(100.212 -0.241919 -0.670142)
(100.206 -0.238019 -0.672268)
(100.201 -0.23425 -0.674233)
(100.196 -0.230581 -0.675885)
(100.193 -0.226953 -0.677422)
(100.191 -0.223357 -0.678702)
(100.19 -0.219794 -0.67977)
(100.192 -0.216283 -0.68082)
(100.197 -0.212968 -0.682139)
(100.205 -0.210398 -0.684116)
(99.9941 0.00532678 0.012655)
(99.9739 0.0106686 0.026364)
(99.9367 0.0162083 0.0423523)
(99.8818 0.0219981 0.0620569)
(99.808 0.0278075 0.0870535)
(99.7133 0.0329261 0.119223)
(99.597 0.0358167 0.160594)
(99.4617 0.033705 0.213428)
(99.3156 0.0221716 0.279773)
(99.1765 -0.00470103 0.360572)
(99.0746 -0.0522582 0.454994)
(99.0469 -0.118224 0.559054)
(99.1163 -0.184997 0.665303)
(99.2734 -0.234407 0.765247)
(99.4771 -0.257609 0.8512)
(99.6829 -0.264013 0.92029)
(99.8667 -0.261627 0.972995)
(100.022 -0.254508 1.01166)
(100.149 -0.245138 1.03912)
(100.249 -0.235573 1.05817)
(100.327 -0.226714 1.07121)
(100.384 -0.218781 1.08056)
(100.426 -0.211996 1.08813)
(100.456 -0.206963 1.09497)
(100.476 -0.203726 1.10155)
(100.491 -0.20193 1.10805)
(100.501 -0.201278 1.11453)
(100.507 -0.201532 1.12108)
(100.512 -0.202434 1.12776)
(100.515 -0.203742 1.1345)
(100.517 -0.205267 1.1411)
(100.519 -0.206881 1.14739)
(100.521 -0.208485 1.15318)
(100.524 -0.210014 1.15829)
(100.528 -0.211427 1.16249)
(100.533 -0.21273 1.16556)
(100.539 -0.213944 1.16729)
(100.547 -0.2151 1.16752)
(100.557 -0.216262 1.16603)
(100.574 -0.217595 1.16245)
(99.9943 0.015818 0.0123586)
(99.9746 0.031776 0.0257392)
(99.938 0.0485029 0.0414016)
(99.8834 0.0662846 0.0607922)
(99.8088 0.0846315 0.085549)
(99.711 0.101696 0.117702)
(99.5872 0.113202 0.159607)
(99.4371 0.110983 0.213984)
(99.2659 0.0813129 0.283541)
(99.0903 0.00461117 0.370191)
(98.948 -0.135362 0.47364)