/*--------------------------------*- C++ -*----------------------------------*\
| =========                 |                                                 |
| \\      /  F ield         | OpenFOAM: The Open Source CFD Toolbox           |
|  \\    /   O peration     | Version:  2306                                  |
|   \\  /    A nd           | Website:  www.openfoam.com                      |
|    \\/     M anipulation  |                                                 |
\*---------------------------------------------------------------------------*/
FoamFile
{
    version     2.0;
    format      ascii;
    arch        "LSB;label=32;scalar=64";
    class       volVectorField;
    location    "0.25";
    object      Force;
}
// * * * * * * * * * * * * * * * * * * * * * * * * * * * * * * * * * * * * * //

dimensions      [1 1 -2 0 0 0 0];

internalField   uniform (0 0 0);

boundaryField
{
    walls
    {
        type            calculated;
        value           uniform (0 0 0);
    }
    inlet
    {
        type            calculated;
        value           uniform (0 0 0);
    }
    outlet
    {
        type            calculated;
        value           uniform (0 0 0);
    }
    NASA
    {
        type            calculated;
        value           nonuniform List<vector> 
14179
(
(-0.0146219 -0.134449 4.37819e-06)
(-0.0131064 -0.108319 2.9656e-06)
(-0.0684792 -0.553608 0.000459092)
(-0.102823 -0.826112 0.00185994)
(-0.0670519 -0.542653 0.000231805)
(-0.110925 -0.891127 0.00206408)
(0.201992 0.876913 -0.000158731)
(0.0986511 0.495241 -5.29657e-05)
(0.674634 3.3073 0.00440739)
(0.102876 0.516452 -5.11082e-05)
(-0.00128864 -0.0123905 3.82188e-06)
(-0.0179904 -0.146999 0.000351978)
(0.130094 0.649259 -0.00135286)
(-0.0357881 -0.325018 0.000897236)
(0.0616376 0.307403 -0.000616365)
(1.37517 0.927628 0.00281121)
(1.39255 0.922817 -0.000278403)
(0.0213862 0.119772 -2.95344e-05)
(0.157568 0.934874 -8.54804e-05)
(1.26283 0.836854 -0.00161537)
(-0.0171361 -0.239738 -1.21678e-05)
(-0.0214413 -0.199334 -0.000134115)
(-0.0196097 -0.272226 -0.000248911)
(-0.00883118 -0.0642817 1.83299e-06)
(-0.013298 -0.10996 1.37703e-05)
(-0.00954316 -0.0694652 1.32019e-05)
(-0.0129496 -0.106532 0.000293657)
(-0.0151721 -0.10862 0.000309644)
(-0.0132814 -0.121156 0.000335505)
(-0.0154908 -0.212245 0.00359509)
(0.0464994 0.203054 2.49293e-05)
(0.0522223 0.246217 4.73255e-06)
(0.0561374 0.264674 -6.93032e-05)
(0.0458871 0.199878 -1.83067e-05)
(0.0627255 0.230146 -1.18227e-05)
(0.0612032 0.22435 -4.87942e-06)
(0.0326031 0.11832 -6.68616e-06)
(0.0317344 0.115047 -5.19221e-06)
(-0.00222388 -0.0105603 0.000143438)
(-0.0129783 -0.06311 0.000636149)
(0.170181 0.621189 -0.000939756)
(0.099697 0.359254 -0.000170413)
(0.104858 0.526056 -5.14716e-05)
(-0.00614199 -0.043133 2.80733e-06)
(-0.00558353 -0.0392162 -4.14631e-06)
(0.165577 0.831215 -8.37488e-05)
(-0.00988747 -0.0683414 0.000227102)
(0.0968152 0.483004 -0.000475891)
(0.0900268 0.449548 -0.000561348)
(0.106971 0.437033 -0.000332923)
(0.0839746 0.312161 -1.77626e-05)
(0.08362 0.310831 -3.5806e-05)
(-0.0653066 1.59475 -0.000157832)
(1.38784 0.922682 -0.000732541)
(-0.0696532 1.70392 6.80627e-05)
(-0.00271417 1.34978 -0.000147513)
(0.072748 1.09987 4.67495e-05)
(0.067978 1.02726 -0.00011946)
(-0.00335571 1.5366 -3.85889e-05)
(0.0948021 0.372641 -1.78165e-05)
(0.156624 0.928618 -8.29916e-05)
(0.00727535 0.026419 4.76731e-05)
(-0.0226568 0.564412 -0.000625764)
(0.912763 0.622702 0.0762214)
(-0.000667498 0.530636 -0.00088013)
(0.0268303 0.406746 -0.000559759)
(0.126773 0.741408 0.00706424)
(-0.0147253 -0.147313 6.78817e-06)
(-0.0145646 -0.134006 7.70908e-06)
(-0.101288 -0.813889 0.00182772)
(-0.0115924 -0.0919033 3.22848e-06)
(-0.013084 -0.108143 6.08172e-06)
(1.3109 0.867699 -0.0023186)
(1.26221 0.835734 -0.00202039)
(0.34512 2.04456 -0.00517867)
(0.260223 1.53612 -0.00345801)
(-0.112074 -0.901447 0.000592128)
(-0.0581049 -0.361235 0.0008699)
(-0.0569669 -0.356365 0.000861091)
(-0.0444319 -0.260316 0.000649283)
(0.156571 0.675017 -0.00163707)
(0.176305 0.761735 -0.00179906)
(0.761182 1.30688 -5.69676e-05)
(0.761968 1.30625 -0.000332411)
(0.101965 0.511743 -5.47887e-05)
(0.0896144 0.430554 -3.6723e-05)
(-0.000493394 -0.004535 -8.43695e-07)
(0.00121576 0.00588286 -3.69738e-08)
(0.00124523 0.00604887 -1.78676e-06)
(-0.000481374 -0.00445245 2.90765e-07)
(0.108284 0.543567 -3.60147e-05)
(0.0928748 0.479006 -3.16208e-05)
(-0.0201352 -0.164382 0.000411425)
(-0.0136622 -0.0977765 0.000262693)
(-0.0204883 -0.146155 0.00036419)
(-0.0124875 -0.086 0.000246179)
(-0.0182741 -0.125196 0.000268693)
(0.0852938 0.425306 -0.00103564)
(-0.0200748 -0.182416 0.000440042)
(-0.0247284 -0.339361 0.00106343)
(-0.0208021 -0.291721 0.000117739)
(0.080006 0.399306 -0.000943544)
(1.37349 0.922409 -0.00269067)
(0.0960428 0.566252 -3.74728e-05)
(0.104453 0.584117 -1.06314e-05)
(0.105089 0.587546 -3.1508e-05)
(0.178035 1.23952 -7.49393e-05)
(0.0999147 0.592684 -3.54904e-05)
(0.155176 0.920651 -5.6457e-05)
(0.0236201 0.022323 1.59363e-05)
(0.316377 -0.116582 0.00317579)
(0.339058 -0.134418 0.00159728)
(0.0141492 0.0135909 -3.70089e-05)
(-0.00720569 -0.0307882 0.000141902)
(0.0206554 0.0760701 -0.000125135)
(0.0016252 0.00535485 5.5548e-05)
(0.0205407 0.0825403 -4.22226e-05)
(-0.00990452 -0.0441367 0.000121011)
(-0.00253622 -0.0136581 0.000111293)
(0.00363169 0.0150017 1.43994e-05)
(-0.018491 -0.0893312 0.000213303)
(-0.000975497 0.727896 -0.00153911)
(0.0406569 0.606062 -0.00134701)
(-0.00143508 0.975826 -0.0021172)
(0.0316595 0.478344 -0.00138034)
(-0.0344027 0.862645 -0.00202639)
(1.0909 0.733666 -0.00173325)
(-0.0466182 1.15657 -0.00248301)
(0.109101 0.645173 -0.00245228)
(0.156257 0.611584 -0.0016593)
(0.117111 0.45775 -0.00100209)
(0.10813 0.394356 -0.000841443)
(0.153527 0.560636 -0.00120808)
(0.0630837 0.22748 -0.000483101)
(0.0863506 0.311919 -0.000740159)
(-0.0132589 -0.149365 -1.531e-06)
(-0.0170214 -0.237817 9.34987e-06)
(-0.0106562 -0.0820513 3.08675e-06)
(-0.00867916 -0.0631791 2.79108e-06)
(0.000421126 0.000842603 0.524444)
(-0.0130049 -0.102207 0.000286668)
(0.000393647 0.000806123 0.498678)
(-0.0144497 -0.109977 0.000317099)
(0.000687946 0.00105856 0.567489)
(-0.0129897 -0.129512 0.000425217)
(0.000918915 0.00150008 0.568641)
(-0.0120765 -0.138858 0.00123923)
(0.0520117 0.245212 -2.4342e-05)
(0.0388292 0.176586 -7.0585e-06)
(0.0391375 0.178007 -1.78504e-05)
(0.0461043 0.200785 -1.42105e-05)
(0.0453558 0.199772 -9.32009e-06)
(0.0455882 0.200806 -1.8305e-05)
(0.0607072 0.222599 -1.2708e-05)
(0.0237206 0.117961 -1.16109e-05)
(0.0211724 0.1074 -1.03776e-05)
(0.0319638 0.115933 -6.80747e-06)
(0.0291931 0.102727 -6.7836e-06)
(-0.00662205 -0.0302628 0.000233254)
(-0.00560121 -0.0266322 0.000260426)
(0.00032618 0.000644471 0.317284)
(0.000329565 0.000612138 0.310485)
(0.000321062 0.000597765 0.306243)
(0.00029713 0.000613991 0.352757)
(0.0944764 0.321779 9.52484e-05)
(0.160844 0.562144 0.00346624)
(-2.5702e-05 0.000675659 0.33354)
(0.000255913 0.000203132 0.303191)
(0.000120083 0.000226278 0.107009)
(0.0824018 0.289138 -0.000117908)
(0.284346 0.660558 -5.38957e-06)
(0.16674 0.58783 5.93827e-05)
(0.16506 0.581943 -3.02727e-05)
(0.08342 0.389609 -2.28706e-05)
(0.0842745 0.39361 -4.45215e-05)
(0.137717 0.65786 -4.80643e-05)
(0.0819639 0.36501 -4.13233e-05)
(0.0861534 0.391054 -1.87316e-05)
(0.0881159 0.399879 -4.58841e-05)
(0.0811643 0.361553 -1.19351e-05)
(-0.00504848 -0.0353815 6.27667e-07)
(-0.00606779 -0.0426162 7.29346e-07)
(0.139152 0.737102 -1.99102e-05)
(0.261419 0.450729 0.0106574)
(0.000783916 0.0031386 0.852567)
(0.000344021 0.00151861 0.407654)
(0.0476822 0.138623 1.3895e-05)
(-0.0119579 -0.0745085 0.000295709)
(-0.011931 -0.0752331 0.000441052)
(0.000786029 0.00163928 0.667251)
(0.000258757 0.000237976 0.307462)
(0.0958527 0.491649 0.000493387)
(0.000420495 0.000193793 0.370493)
(0.139376 0.732058 0.00460807)
(0.000459512 0.000808591 0.343303)
(0.000315255 0.000632697 0.324188)
(-0.000415401 0.000321739 0.346696)
(6.86785e-05 0.000329171 0.111577)
(0.0802778 0.383289 -0.000513726)
(0.102857 0.477552 0.000408712)
(0.000397438 0.000180926 0.204012)
(9.43748e-05 0.000427325 0.106984)
(0.169246 0.710883 0.00117246)
(0.0839956 0.31223 -2.07206e-05)
(0.079973 0.306136 -2.25118e-05)
(0.0952973 0.388477 -3.28808e-05)
(0.0669108 0.269488 -9.18082e-06)
(-0.783142 2.50354 -0.0192046)
(-0.0667077 1.6333 -5.79761e-05)
(-0.171789 1.60261 0.000687092)
(0.0733228 1.10678 -7.15393e-05)
(0.0582845 1.24592 -5.41945e-05)
(-0.00306182 1.45183 -7.31829e-05)
(0.036359 1.37268 -5.1117e-05)
(0.10794 1.18467 -3.64484e-05)
(0.138951 1.79356 -6.31378e-05)
(0.139862 1.80514 -5.6579e-05)
(0.106379 1.16786 -6.02548e-05)
(0.122746 1.25377 -6.11901e-05)
(0.126155 1.17378 -1.34297e-06)
(0.13158 1.22447 -9.45962e-05)
(0.118214 1.20711 -6.80085e-07)
(0.0740111 0.306772 -5.59924e-06)
(0.0660133 0.26201 2.36843e-07)
(0.0990515 0.389262 7.2506e-06)
(0.113573 0.769364 -6.92678e-05)
(0.108394 0.682706 -3.91018e-05)
(-0.000485999 0.000232917 0.558648)
(0.000701518 0.00248554 0.880525)
(0.000906788 0.00271347 0.000135758)
(0.000183979 0.00285358 0.728819)
(0.0018522 0.00621534 0.000127825)
(0.000338746 0.00995321 0.272251)
(-0.0599975 0.576397 -0.0011908)
(0.00723467 -0.00264707 1.73932)
(0.000287671 0.0005451 0.301724)
(0.014125 0.513974 -0.000909219)
(0.000675218 0.000102354 0.243137)
(0.0231101 0.482468 -0.000723985)
(0.060914 0.523531 -0.000905893)
(0.0606723 0.514004 -0.0008648)
(0.000312787 0.000446257 0.242084)
(0.00033885 0.000487664 0.266305)
(0.0570955 0.526171 -0.000807436)
(0.0518846 0.522779 -0.00051737)
(0.0469379 0.513057 0.000798124)
(1.96644e-05 -0.000594988 0.22044)
(-0.0191901 -0.105262 0.00119182)
(4.85401e-05 0.000788046 0.495063)
(0.091254 0.507101 -0.000470604)
(0.000320202 0.000610944 0.315543)
(0.000323278 0.000614829 0.316974)
(0.478967 -0.190857 -0.0038463)
(0.228983 0.216475 0.00220044)
(0.000177358 0.000117367 0.0804911)
(-0.0542539 -0.5332 0.000772694)
(-0.0719687 -0.580975 0.000850271)
(-0.0563493 -0.553087 0.00103101)
(-0.0723584 -0.584057 0.000873364)
(-0.0767961 -0.619097 0.00116387)
(-0.061281 -0.600662 0.00126471)
(-0.0869324 -0.699637 0.00148469)
(0.179286 0.77545 -0.00183363)
(0.447616 2.1906 -0.00498013)
(0.182849 0.791271 -0.00186009)
(0.4271 2.08964 -0.00477736)
(-0.0672646 -0.544226 0.000262653)
(-0.0443967 -0.276521 0.000642861)
(-0.106772 -0.857556 0.00194474)
(-0.0499201 -0.310509 0.000726585)
(1.39285 0.923002 -0.000576812)
(1.3929 0.92303 -0.000285268)
(0.220975 0.959655 -0.000247561)
(0.606694 2.97706 -0.00134665)
(0.616434 3.02471 -0.000769448)
(0.234442 1.01784 -0.000434893)
(0.413173 2.44977 -0.000656977)
(0.498021 2.95275 -0.00141282)
(-0.00200373 -0.0156869 8.62996e-06)
(-0.00143348 -0.0127834 4.22685e-06)
(0.0211163 0.119306 -5.3811e-05)
(0.0216516 0.121844 -3.61474e-05)
(0.0462636 0.200445 -0.000341634)
(0.0333954 0.151347 -0.000254866)
(0.056249 0.244515 -0.000457249)
(0.0253363 0.113869 -0.000156947)
(-0.109974 -0.88409 0.00205372)
(-0.0703281 -0.51053 0.00118706)
(0.0136647 0.0631014 -2.25074e-05)
(-0.0129703 -0.0713651 0.000224009)
(0.0638145 0.232593 -0.000564644)
(0.0717161 0.261357 -0.00061124)
(0.0347066 0.125041 -0.000305455)
(0.0400975 0.144455 -0.000338352)
(0.27528 1.24528 -0.000255625)
(0.171734 0.744774 -4.93163e-05)
(0.315458 1.49139 -0.000354875)
(0.14865 0.745595 -9.65544e-05)
(-0.0190402 -0.160245 0.000173653)
(-0.0438345 -0.324858 0.000324277)
(-0.00711653 -0.0519777 -1.37191e-05)
(-0.000356887 -0.00732715 3.21515e-06)
(-0.0192558 -0.131791 3.07799e-05)
(-0.0255526 -0.178396 8.4256e-05)
(0.0960687 0.392799 0.000141369)
(0.0832897 0.309622 -7.85054e-05)
(0.0834835 0.310331 -4.9203e-05)
(0.10738 0.440525 -0.000686585)
(0.163706 0.719041 -0.000189492)
(0.140197 0.646042 -3.2038e-05)
(0.170935 0.751356 -0.000182815)
(0.179472 0.836915 -4.03038e-05)
(-0.00261947 1.272 -0.000129262)
(0.070729 1.06602 -0.000279693)
(-0.00288849 1.37776 -0.000299812)
(0.0675203 1.02044 -0.000151442)
(-0.0635456 1.55259 -0.000148088)
(1.3907 0.922894 -0.000400602)
(-0.0658719 1.61024 -0.000357343)
(0.48431 4.15335 -0.00172062)
(0.10062 0.395265 -4.20218e-05)
(0.0996135 0.391305 -5.43074e-05)
(0.0665367 0.243876 -7.41943e-06)
(0.0621868 0.2279 -4.8283e-06)
(0.0557874 0.292368 -0.000105507)
(0.181349 0.895037 -0.00108298)
(0.0206798 0.114963 -6.2084e-05)
(0.0460996 0.247267 -6.01706e-05)
(0.765189 4.78679 0.00240292)
(0.364836 2.43711 0.000498405)
(0.0332283 0.120428 -3.562e-06)
(0.0320406 0.116101 -1.11292e-06)
(1.2443 0.826487 -0.000564747)
(0.0896638 0.62032 -0.00144429)
(0.252587 0.236879 -0.000461911)
(0.495279 -0.20541 0.00014812)
(0.239322 0.225139 -0.000520058)
(0.51607 -0.2144 -0.00011041)
(0.0604652 0.221671 -9.99558e-06)
(0.028085 0.0987327 -5.9527e-06)
(0.0315826 0.114521 -5.22488e-06)
(0.284498 0.660912 -2.22784e-05)
(0.274151 0.804744 -7.34043e-05)
(0.000642403 0.00188373 0.718284)
(0.000247979 0.000845429 0.358572)
(0.000416707 0.000202446 0.379671)
(-0.200046 1.85443 -0.000194432)
(-0.0668076 1.6334 -7.25733e-05)
(1.38341 0.923105 -0.00143094)
(0.0259392 0.0245092 1.47938e-05)
(0.354983 -0.14589 0.000130746)
(0.348764 -0.141786 0.00055928)
(0.028734 0.0271218 8.32009e-06)
(0.000367184 0.000722928 0.537118)
(0.000296687 0.000362475 0.376681)
(0.000285734 0.00051414 0.338446)
(0.000472444 0.000825488 0.359672)
(-0.0933221 -0.750469 0.00165208)
(1.34561 0.890766 -0.00239214)
(1.33076 0.880908 -0.00236221)
(1.30731 0.865342 -0.00231339)
(1.3294 0.880001 -0.00235985)
(0.397296 1.94274 -0.00446213)
(0.175885 0.760127 -0.00180154)
(0.177939 0.769491 -0.00182114)
(0.419402 2.0518 -0.00470084)
(0.269461 1.59093 -0.00361479)
(0.288139 1.70153 -0.00382685)
(-0.0266547 -0.157156 0.000379729)
(-0.0332447 -0.195252 0.000472302)
(-0.0570497 -0.354523 0.000843321)
(-0.0518769 -0.322551 0.000757985)
(-0.0426204 -0.24961 0.000613323)
(-0.0357093 -0.2095 0.000508511)
(0.253043 2.15042 -0.00477552)
(0.239974 2.03868 -0.00463563)
(0.023835 0.0878931 -0.000155849)
(0.0221347 0.0892972 -0.000182827)
(0.0334349 0.135793 -6.29997e-05)
(0.0317837 0.117448 -0.000234195)
(0.000828177 0.00229501 6.58527e-05)
(0.0237896 0.101266 -7.06915e-05)
(0.0330013 0.142132 -0.000200081)
(0.0183912 0.0811534 -4.1676e-05)
(0.0396671 0.146766 -0.00030896)
(0.0433122 0.176455 -0.000126079)
(0.0340279 0.125796 -0.000255913)
(0.0425402 0.633865 -0.00139576)
(-0.00151433 1.01904 -0.00221067)
(-0.00169379 1.12339 -0.00243512)
(0.0468833 0.69884 -0.00154345)
(-0.0539538 1.33733 -0.00287855)
(1.29752 0.858821 -0.00228583)
(-0.0564173 1.39802 -0.0030125)
(-0.0484392 1.20144 -0.00258317)
(-0.052759 1.30791 -0.00281486)
(1.29392 0.856432 -0.00227987)
(-0.00174465 1.15177 -0.00249646)
(0.0512043 0.764367 -0.00168099)
(-0.00184508 1.20771 -0.00261992)
(0.0482052 0.71903 -0.00155953)
(0.225995 1.3342 -0.00291087)
(0.40989 2.54892 -0.0078071)
(0.237155 1.5782 -0.00357655)
(0.246632 1.4553 -0.00335825)
(0.40412 2.51854 -0.00564358)
(0.376631 2.34625 -0.00538173)
(0.195446 1.29858 -0.00393418)
(-0.0821782 -0.602627 0.000992552)
(-0.102929 -0.827743 0.00193838)
(-0.0679157 -0.450448 0.00106255)
(-0.0581733 -0.362139 0.000893674)
(-0.0813467 -0.545017 0.00119361)
(-0.0543213 -0.339005 0.000860092)
(-0.0260212 -0.144475 0.00039107)
(-0.046198 -0.271087 0.000703136)
(0.000627684 -0.00333645 0.000219829)
(-0.0487942 -0.287642 0.000735782)
(0.230761 1.03636 -0.00254641)
(0.179525 0.775197 -0.00180898)
(0.237959 1.12065 -0.0025962)
(0.177695 0.767543 -0.00180081)
(0.225435 1.01583 -0.00237284)
(0.24075 1.13276 -0.00297964)
(0.367054 1.79291 -0.00426739)
(0.105193 0.411087 -0.00091362)
(0.0893968 0.349278 -0.000808239)
(0.0951982 0.347095 -0.000759017)
(0.0753901 0.274752 -0.000632772)
(0.0868761 0.339461 -0.000799017)
(0.0810154 0.31663 -0.000760913)
(0.0554035 0.199722 -0.000433844)
(0.0426227 0.153557 -0.00035357)
(0.119168 0.276116 -0.000572703)
(0.100665 0.233133 -0.000447581)
(-0.0207899 -0.157406 0.000401706)
(-0.0183797 -0.131321 0.000341847)
(0.0808814 0.413144 -0.00124196)
(0.08548 0.426422 -0.000959962)
(0.12352 0.651694 -0.00211153)
(-0.0192321 -0.189843 0.000390527)
(-0.0198966 -0.181196 0.000447086)
(-0.0171356 -0.188295 0.000143109)
(-0.0211558 -0.292979 0.000639823)
(0.0768414 0.367558 -0.000982316)
(0.0813642 0.405938 -0.000902826)
(-0.00483853 -0.0202895 9.53093e-05)
(0.00498309 0.0189765 6.81812e-05)
(-0.00158809 -0.00686539 8.17741e-05)
(0.011737 0.0429128 -2.57973e-05)
(0.0176133 0.643675 -0.00138445)
(-0.00117826 0.841422 -0.00183702)
(0.0267711 0.56327 -0.00128705)
(0.0359586 0.537168 -0.00126705)
(-0.104063 0.990836 -0.00353982)
(-0.0406699 1.01178 -0.00223291)
(1.20832 0.806778 0.00095363)
(-0.449907 1.46486 -0.0028071)
(-0.0445062 1.1051 -0.00239168)
(-0.139049 1.29591 -0.00272517)
(-0.0123412 -0.0643989 0.000207614)
(-0.00926931 -0.0475946 0.000163458)
(-0.0110276 -0.0563923 0.000188949)
(-0.0105731 -0.0553647 0.000182935)
(-0.0251624 -0.138006 0.000245791)
(0.000722214 0.00110259 0.383)
(0.0581522 0.390918 -0.000897981)
(0.0915734 0.633654 -0.00156666)
(0.0601193 0.403863 -0.000989738)
(0.125937 0.459453 -0.000961256)
(0.1536 0.560671 -0.00118236)
(0.072763 0.262472 -0.000545352)
(0.0618916 0.216413 -0.000458574)
(0.0815498 0.28569 -0.000784091)
(0.0892201 0.322043 -0.000689859)
(0.450245 -0.1882 -0.00264873)
(0.215754 0.198096 0.000470567)
(0.263763 0.24529 -0.000277999)
(0.522165 -0.217895 -0.000937298)
(0.201322 0.872566 -0.00194944)
(0.534139 2.61752 -0.00552254)
(0.173967 0.754349 -0.00156394)
(0.518525 2.54031 -0.00556421)
(-0.0680199 -0.550053 0.000377892)
(-0.00309471 -0.0223567 2.06123e-05)
(-0.00269451 -0.0198893 1.60889e-05)
(0.201299 0.873795 -0.000591012)
(0.601375 2.94958 -0.00234742)
(0.208078 0.902958 -0.000719769)
(-0.0628045 -0.456092 0.00103275)
(0.175658 0.772417 -0.000330441)
(0.142689 0.658532 -0.000318239)
(0.176082 0.774306 -0.000379888)
(0.142448 0.65737 -0.000281542)
(0.0683915 0.250668 -0.000146448)
(0.0760339 0.27873 -4.61227e-05)
(-0.0341651 -0.250591 0.000110402)
(0.160838 0.796059 -0.000379344)
(0.0628473 0.330491 -0.000155174)
(0.0413704 0.149985 -8.89438e-05)
(0.0425732 0.154357 -1.67862e-05)
(1.39229 0.92275 -0.000266355)
(0.0299367 0.0281444 5.39131e-06)
(0.347011 -0.144 6.79102e-07)
(0.0296082 0.0278261 3.6687e-06)
(0.349148 -0.144826 -3.77392e-06)
(-0.0242131 -0.152329 0.000336951)
(-0.0266924 -0.167585 0.000375353)
(-0.0424066 -0.264275 0.000613101)
(-0.0975705 -0.784286 0.00174735)
(-0.0376303 -0.234887 0.00054095)
(0.184639 0.799174 -0.00187593)
(0.196065 0.849394 -0.00197961)
(0.0987373 0.431799 -0.00092223)
(0.0734936 0.337059 -0.000716154)
(0.102277 0.4474 -0.000959322)
(0.070155 0.321607 -0.000678742)
(0.0402866 0.183359 -0.000340027)
(0.0647424 0.281982 -0.000551889)
(0.0715634 0.312053 -0.0006284)
(0.0460733 0.210185 -0.000409303)
(0.0582857 0.213125 -0.000546028)
(0.0566136 0.206873 -0.000529794)
(0.0620486 0.226183 -0.00055444)
(0.0582419 0.212404 -0.000531903)
(0.0115385 0.0585056 -0.000101502)
(0.0636051 0.311628 -0.000642614)
(-0.069846 -0.506895 0.00117238)
(0.0210473 0.100042 -0.000124365)
(-0.00926747 -0.0516049 0.000168874)
(0.0280077 0.134749 -0.000214941)
(0.031653 0.114458 -0.000299109)
(0.0302503 0.109301 -0.000285625)
(0.0335042 0.120722 -0.000298368)
(0.0309498 0.111571 -0.000283214)
(1.3097 0.866902 -0.00231352)
(1.27609 0.84466 -0.00217585)
(0.130586 0.122987 -0.000319311)
(0.360812 -0.149846 0.000212602)
(0.370894 -0.154032 0.000220272)
(0.118341 0.111443 -0.000293137)
(0.473103 -0.196238 0.000229222)
(0.222717 0.209722 -0.000510119)
(0.208474 0.196377 -0.000484592)
(0.453499 -0.188212 0.000234748)
(-1.98261e-05 -0.0202885 1.63176e-05)
(6.57867e-05 -0.0139173 1.69512e-05)
(-0.0532685 -0.523866 0.000629361)
(-0.000204162 -0.0336368 4.93999e-05)
(-9.36942e-05 -0.0256459 3.07602e-05)
(-0.0700596 -0.565944 0.000687896)
(-0.0553648 -0.543712 0.00092658)
(-8.84864e-05 -0.0249767 4.90005e-05)
(-0.000143264 -0.0290607 5.0257e-05)
(-0.0741326 -0.598038 0.00101384)
(-0.0744592 -0.60062 0.00103272)
(-0.000365777 -0.0449843 9.79572e-05)
(-0.0592248 -0.580824 0.00117313)
(-0.000246718 -0.0364157 7.80014e-05)
(-0.0824614 -0.664107 0.00135224)
(1.36346 0.902715 -0.00236599)
(1.36247 0.902038 -0.002387)
(1.35984 0.900261 -0.00240246)
(1.36483 0.903593 -0.00239382)
(0.201916 0.875075 -0.00197851)
(0.523957 2.56649 -0.00574443)
(0.524147 2.56764 -0.00566101)
(0.194669 0.8436 -0.00193455)
(0.18013 0.779229 -0.00183866)
(0.237003 1.06892 -0.00248825)
(0.267619 1.26169 -0.00288964)
(0.44115 2.15879 -0.00491645)
(0.181647 0.785929 -0.00185065)
(0.244379 1.10259 -0.00255149)
(0.256973 1.21113 -0.00279005)
(0.433628 2.12177 -0.00484822)
(1.37996 0.914364 -0.00107326)
(1.3783 0.913309 -0.000868991)
(1.38954 0.9208 -0.000616673)
(1.38143 0.915387 -0.00083953)
(0.492823 2.9217 -0.00160897)
(0.444665 2.63525 -0.00182818)
(-0.00218671 -0.0167798 1.00839e-05)
(-0.067812 -0.548439 0.00034836)
(-0.00251934 -0.0188117 1.43434e-05)
(0.0200516 0.113143 -9.66245e-05)
(0.0204564 0.115506 -8.1648e-05)
(0.0209264 0.118234 -5.95362e-05)
(0.0206445 0.1166 -7.65472e-05)
(0.225015 0.976747 -0.000489014)
(0.206508 0.896386 -0.000566784)
(0.584498 2.86736 -0.00190163)
(-0.0573674 -0.380767 0.000871258)
(-0.046139 -0.287242 0.000669008)
(-0.0661461 -0.480148 0.00109519)
(-0.0481038 -0.299331 0.00069886)
(-0.0618647 -0.410328 0.00094603)
(0.474941 4.06484 -0.00162336)
(0.486204 4.16028 -0.00131931)
(0.0832087 0.309318 -8.97056e-05)
(0.107401 0.440638 0.000436019)
(0.107438 0.4408 -0.000737179)
(0.0830483 0.308725 -0.000119399)
(0.139119 0.641369 -0.000236003)
(0.174378 0.766658 -0.000234505)
(0.175492 0.771653 -0.000285162)
(0.14212 0.655705 -0.000245036)
(0.107354 0.440451 0.000378989)
(0.0827892 0.307763 -0.000158148)
(0.107243 0.439988 -0.00079066)
(0.0829486 0.308356 -0.000130387)
(0.0696738 1.05022 -0.000287822)
(-0.0029858 1.42396 -0.000367744)
(-0.00298222 1.41562 -0.000538765)
(0.0614122 0.926078 -0.000388569)
(-0.0663777 1.62198 -0.000657363)
(1.39302 0.923119 -0.00046383)
(-0.0619819 1.51482 -0.000765301)
(-0.0672326 1.64339 -0.000425906)
(-0.0673092 1.64481 -0.000607267)
(1.39373 0.923587 -0.000412644)
(-0.00292197 1.38482 -0.000573158)
(0.0531571 0.803678 -0.00039518)
(-0.00264338 1.2501 -0.000651675)
(0.0585174 0.883029 -0.000391437)
(0.299964 1.35759 -0.000317325)
(0.235839 1.02404 -0.000325094)
(0.621133 3.04802 -0.00113297)
(0.364579 1.72406 -0.000754818)
(0.336091 1.58963 -0.000342054)
(0.630578 3.09444 -0.000996831)
(0.239632 1.04039 -0.0003825)
(0.330481 1.49535 -0.000637574)
(0.0956757 0.375861 -6.31994e-05)
(0.0791435 0.310919 -0.000106011)
(0.0682356 0.250104 -1.14225e-05)
(0.0760621 0.278809 -3.16692e-05)
(0.0725817 0.285143 -0.000118745)
(0.691323 4.3248 -0.00148489)
(0.44475 2.63711 -0.000886446)
(0.746408 4.67155 -0.00153335)
(0.493682 3.3019 -0.00133901)
(0.468061 3.1298 -0.00100377)
(0.478469 2.83718 -0.00109886)
(-0.0321115 -0.236259 7.15879e-05)
(-0.0208387 -0.140977 6.41786e-05)
(-0.00187593 -0.0149821 6.98981e-06)
(-0.0199204 -0.135553 4.25267e-05)
(-0.0017471 -0.014371 6.03524e-06)
(0.0621836 0.326479 -9.59878e-05)
(0.158623 0.784258 -0.000233159)
(0.160957 0.79634 -0.000289574)
(0.0470864 0.253656 -0.000117377)
(0.0211989 0.119713 -4.79804e-05)
(0.0471776 0.253643 -7.65398e-05)
(0.0213268 0.120288 -4.13144e-05)
(0.0337033 0.122156 -3.80007e-06)
(0.0403297 0.146198 -9.3513e-06)
(0.0659922 0.240512 -0.000577936)
(0.0684373 0.249406 -0.000592055)
(0.032163 0.112349 -0.000275448)
(0.0361903 0.13038 -0.000314602)
(0.0380548 0.132932 -0.0003106)
(0.0378717 0.136431 -0.000324574)
(0.273761 0.803685 -0.00019979)
(0.274084 0.80456 -0.000132084)
(0.285217 0.662662 -0.000132735)
(0.285154 0.662505 -0.000117404)
(-0.198396 1.83886 -0.000214488)
(-0.0623132 1.52355 -0.000242491)
(1.39144 0.922567 -0.000296743)
(-0.866888 2.81949 -0.000544159)
(-0.0639476 1.56339 -0.000295387)
(-0.202312 1.87409 -0.000407622)
(0.0651562 0.238834 -3.27859e-06)
(0.0635615 0.23298 -1.34067e-06)
(0.0330783 0.119902 -1.6857e-06)
(0.0283679 0.0996853 -2.06556e-06)
(0.0280127 0.0984351 -3.05241e-07)
(0.0326344 0.118291 4.46039e-09)
(0.444078 2.62609 -0.00580422)
(0.384138 2.27117 -0.00506307)
(-0.00332949 -0.0222876 6.07183e-05)
(-0.00616803 -0.0387051 9.85773e-05)
(-0.0307608 -0.192619 0.000437694)
(-0.0277589 -0.174148 0.000391306)
(-0.010855 -0.0658087 0.000162176)
(-0.00741071 -0.0458918 0.000114976)
(1.34425 0.889879 -0.00238971)
(1.35436 0.896599 -0.0024037)
(1.36117 0.90114 -0.00240608)
(1.35488 0.896945 -0.00240362)
(-0.0242911 -0.143491 0.0003471)
(-0.0187784 -0.11162 0.000270484)
(0.347728 2.05488 -0.00457617)
(0.372835 2.2041 -0.00491639)
(-0.0962646 -0.773889 0.0017193)
(-0.032108 -0.20091 0.000457723)
(-0.0359655 -0.224644 0.000516163)
(-0.012425 -0.0748872 0.000183272)
(-0.016829 -0.10035 0.000243878)
(0.199183 0.862987 -0.00199131)
(0.51529 2.52393 -0.00568158)
(0.193944 0.840395 -0.00192891)
(0.479595 2.34832 -0.00532398)
(0.282485 2.40155 -0.0053501)
(0.290742 2.47217 -0.00551662)
(0.06358 0.259766 -0.000226256)
(0.0517008 0.191525 -0.000418511)
(0.0545018 0.201943 -0.000443505)
(0.0596914 0.243781 -0.000830218)
(0.0938152 0.410112 -0.000870083)
(0.0617051 0.282518 -0.000585795)
(0.089434 0.39081 -0.000822549)
(0.0657217 0.301096 -0.000630987)
(0.0577857 0.21416 -0.0004725)
(0.0554349 0.205415 -0.000451993)
(0.0683175 0.279244 -0.000247948)
(-0.0021419 1.36737 -0.00296609)
(0.0574192 0.857707 -0.00188262)
(0.0586948 0.876882 -0.00192315)
(-0.00209147 1.34109 -0.00290964)
(-0.063512 1.5725 -0.00338937)
(1.34151 0.88804 -0.00238318)
(-0.0642059 1.58942 -0.0034259)
(-0.00215948 1.37635 -0.0029844)
(0.0600978 0.898014 -0.00196731)
(-0.00218894 1.38867 -0.00301047)
(0.0591129 0.883174 -0.00193637)
(-0.0630912 1.56217 -0.00336818)
(1.33842 0.88599 -0.00237713)
(-0.0619227 1.53347 -0.00330641)
(0.315927 2.68711 -0.00595188)
(0.310213 2.63829 -0.00585149)
(0.0414425 0.153371 -0.000325549)
(0.0456785 0.169126 -0.000364134)
(0.0532672 0.217375 -0.000731866)
(0.0504999 0.187058 -0.00040783)
(0.0579023 0.236427 -0.000199856)
(0.0471122 0.174457 -0.000377024)
(0.0781552 0.341104 -0.000701471)
(0.0564079 0.258015 -0.000527096)
(0.0833033 0.363795 -0.000757555)
(0.0517482 0.236454 -0.00047397)
(-0.0570771 1.41419 -0.00304862)
(-0.0593124 1.4693 -0.00316626)
(1.31794 0.872394 -0.0023349)
(0.0520401 0.776948 -0.00170907)
(-0.00187697 1.22348 -0.00265536)
(-0.00197356 1.27842 -0.00277289)
(0.0543643 0.811809 -0.00178411)
(-0.00200319 1.29446 -0.00280788)
(0.0568689 0.849418 -0.0018652)
(0.0551526 0.823645 -0.00180904)
(-0.00206848 1.32973 -0.00288594)
(-0.059968 1.48543 -0.00320138)
(1.322 0.875088 -0.00234263)
(-0.0614514 1.52192 -0.00328256)
(0.0758136 0.296832 -0.000729423)
(0.0759788 0.297344 -0.000731355)
(0.0559724 0.204343 -0.000521432)
(0.0562282 0.205418 -0.000526006)
(0.0762242 0.298622 -0.000732384)
(0.241099 1.13573 -0.00263401)
(0.404464 1.97815 -0.00456917)
(0.226767 1.02205 -0.00239069)
(0.176008 0.760833 -0.00181038)
(0.177082 0.765643 -0.00181708)
(0.234048 1.05544 -0.00246078)
(0.412543 2.01802 -0.00462669)
(0.25278 1.19124 -0.00275044)
(0.0772605 0.302118 -0.000738314)
(0.076894 0.300735 -0.000736636)
(0.0759702 0.297262 -0.00073094)
(0.0560194 0.204468 -0.00052075)
(0.0574593 0.20959 -0.000527745)
(0.262932 1.75001 -0.00393228)
(0.418888 2.61101 -0.00588663)
(0.275588 1.62716 -0.00367433)
(0.282205 1.66638 -0.0037595)
(0.449361 2.80145 -0.00628339)
(0.439736 2.74138 -0.00615915)
(0.269591 1.79448 -0.00401734)
(-0.0042096 -0.0255997 8.73852e-05)
(-0.0286758 -0.168842 0.000407801)
(0.0475528 0.231903 -0.000452923)
(0.00362056 0.016656 -1.54575e-06)
(-0.0310562 -0.182602 0.000441225)
(-0.0116956 -0.0662704 0.000185298)
(-0.0672152 -0.445636 0.00104339)
(-0.0553868 -0.344196 0.000815021)
(-0.067241 -0.488022 0.00111732)
(-0.0536877 -0.333702 0.000785595)
(-0.0633883 -0.420351 0.000973003)
(0.46048 2.87098 -0.00642955)
(0.469645 2.92829 -0.00654647)
(0.292686 1.94877 -0.00433694)
(0.286841 1.90972 -0.00425617)
(-0.0232505 -0.129205 0.000344648)
(-0.0403 -0.236095 0.000575733)
(0.0410237 0.199471 -0.0003744)
(0.000380296 -0.000473022 3.97028e-05)
(0.0348792 0.168932 -0.00030085)
(-0.0379832 -0.22266 0.00054054)
(-0.0146492 -0.0823205 0.000224483)
(0.0295315 0.106588 -0.000277248)
(0.0299121 0.10805 -0.000282314)
(0.0295397 0.106589 -0.000276526)
(0.0304221 0.109692 -0.000280395)
(0.115109 0.336872 -0.000704713)
(0.140676 0.411915 -0.000896318)
(0.188363 0.436775 -0.000995025)
(0.183051 0.424445 -0.000964815)
(0.155816 0.361239 -0.000809228)
(0.163908 0.380029 -0.000859119)
(0.1476 0.432244 -0.000947616)
(-0.593687 1.93444 -0.00397962)
(1.30423 0.86327 -0.0022988)
(-0.0556976 1.3803 -0.00297297)
(-0.166704 1.55269 -0.00330894)
(-0.566385 1.84565 -0.00385599)
(-0.497454 1.62046 -0.00323783)
(-0.515325 1.67902 -0.003458)
(-0.144226 1.34408 -0.00285887)
(-0.0499345 1.23831 -0.00266078)
(1.28653 0.851515 -0.0022414)
(-0.549337 1.79024 -0.00368724)
(0.0873988 0.318584 -0.000704883)
(0.0805658 0.293655 -0.00066614)
(0.144087 0.135715 -0.000348045)
(0.397034 -0.16489 0.000239379)
(0.383204 -0.159144 0.000229526)
(0.158055 0.148884 -0.000375799)
(0.0541865 0.189414 -0.000408417)
(0.0505162 0.182049 -0.000400541)
(0.0460001 0.165749 -0.000374899)
(0.0407921 0.142502 -0.000326498)
(0.189562 0.178579 -0.000443496)
(0.413996 -0.171925 0.00024061)
(0.431884 -0.179317 0.000243402)
(0.173998 0.163915 -0.000407944)
(0.644951 3.16334 -0.00264003)
(0.210703 0.914427 -0.00075478)
(0.25028 1.0859 -0.00106446)
(0.659755 3.23585 -0.00324372)
(0.211295 0.916413 -0.00145142)
(0.642401 3.14905 -0.00481613)
(0.210374 0.91238 -0.00137096)
(0.625549 3.06632 -0.00483644)
(0.204844 0.887885 -0.00176328)
(0.659679 3.23291 -0.00622485)
(0.202117 0.876204 -0.00168985)
(0.624821 3.06162 -0.00606891)
(-0.0683435 -0.552562 0.000432687)
(-0.0351107 -0.257201 0.000216822)
(-0.0500253 -0.364124 0.000781085)
(-0.0615428 -0.447009 0.00100961)
(-0.100055 -0.804069 0.00180054)
(-0.0538216 -0.529101 0.000713049)
(-0.00548933 -0.165586 0.000237943)
(-0.00541876 -0.163657 0.000213469)
(-6.75253e-05 -0.0236025 3.55321e-05)