/*--------------------------------*- C++ -*----------------------------------*\
| =========                 |                                                 |
| \\      /  F ield         | OpenFOAM: The Open Source CFD Toolbox           |
|  \\    /   O peration     | Version:  2306                                  |
|   \\  /    A nd           | Website:  www.openfoam.com                      |
|    \\/     M anipulation  |                                                 |
\*---------------------------------------------------------------------------*/
FoamFile
{
    version     2.0;
    format      ascii;
    arch        "LSB;label=32;scalar=64";
    class       volScalarField;
    location    "0.25";
    object      p;
}
// * * * * * * * * * * * * * * * * * * * * * * * * * * * * * * * * * * * * * //

dimensions      [0 2 -2 0 0 0 0];

internalField   nonuniform List<scalar> 
111542
(
59.3639
60.6854
63.8231
68.9475
76.1439
85.6303
97.5695
111.99
128.393
145.342
160.275
169.196
168.111
155.895
135.66
113.064
91.9289
73.6179
58.2512
45.747
35.8012
28.1392
22.3849
18.0276
14.7284
12.2065
10.1788
8.60915
7.44386
6.55181
5.84742
5.27296
4.8397
4.47653
4.13131
3.76156
3.31324
2.78051
2.06216
1.0689
58.3466
59.6305
62.7404
67.81
75.0054
84.6488
97.1135
112.646
131.067
151.283
170.565
183.388
182.224
165.892
140.307
114.025
90.9752
71.661
55.8547
43.2853
33.5797
26.2486
20.7707
16.7532
13.7458
11.4137
9.58598
8.17963
7.10454
6.26522
5.59594
5.0557
4.61917
4.24571
3.89505
3.52889
3.10305
2.5715
1.86298
0.922118
56.33
57.5506
60.5258
65.4233
72.5191
82.3273
95.5591
113.014
135.332
162.316
190.573
211.449
210.857
185.114
149.192
116.68
90.0509
68.7421
52.0536
39.2956
29.8445
23.1656
18.3799
14.885
12.0421
9.72616
7.97554
6.70222
5.7642
5.05729
4.51968
4.10929
3.79087
3.53119
3.2951
3.04601
2.73874
2.31522
1.69734
0.799932
53.3613
54.4589
57.1488
61.6443
68.3323
77.9438
91.6273
111.073
138.662
177.577
212.281
254.193
258.813
217.208
165.157
125.545
93.4628
68.893
50.6576
37.2331
23.5324
17.3782
14.8284
13.3351
11.3022
9.21572
7.56066
6.32417
5.36654
4.6076
4.01039
3.54385
3.17752
2.88081
2.62509
2.37903
2.09746
1.71648
1.13283
0.197663
49.5444
50.4371
52.6378
56.3754
62.09
70.6304
83.444
102.952
133.165
177.779
254.43
339.603
361.327
251.98
167.839
120.844
82.9039
56.9738
39.552
28.1445
20.641
6.64551
5.73579
6.15358
5.42565
4.54717
3.92983
3.47979
3.106
2.79457
2.5467
2.35324
2.20289
2.0814
1.97802
1.8773
1.74965
1.54168
1.12853
0.184807
45.067
45.6648
47.1488
49.7062
53.7139
59.9111
69.6344
85.3477
111.829
166.538
260.132
454.101
615.246
239.99
168.161
111.929
66.8877
41.3106
25.7972
16.1532
11.4217
12.2537
11.8391
7.41417
4.34553
2.90808
2.16428
1.64121
1.24713
0.973986
0.797719
0.687221
0.620135
0.582159
0.564719
0.559762
0.559989
0.565177
0.607606
0.881715
40.2125
40.4439
41.0218
42.0337
43.6617
46.2489
50.3884
57.0844
68.0734
107.711
183.981
415.468
1945.78
-429.672
205.884
75.5204
31.3749
16.9053
8.60186
-0.983169
-4.81899
15.9221
15.1243
9.35222
5.83474
4.37578
3.64792
3.10348
2.67214
2.35766
2.13545
1.97306
1.8501
1.75362
1.67682
1.61577
1.56145
1.51677
1.50474
1.64745
35.3415
35.1784
34.7684
34.0755
33.0302
31.4626
28.9766
24.6422
16.1071
18.6607
2.4292
-157.511
-999.424
-1041.48
-311.603
-100.758
-45.5093
-25.1479
-16.1248
-10.0231
-3.19479
-8.57378
-6.77366
-5.10443
-4.14137
-3.14784
-2.17688
-1.38278
-0.760784
-0.256623
0.162116
0.509615
0.796117
1.02975
1.21621
1.356
1.43539
1.42305
1.24611
0.743286
30.8553
30.3215
28.9803
26.6922
23.1852
17.9026
9.82644
-2.92783
-23.9661
-47.0202
-120.21
-264.3
-474.444
-503.603
-318.437
-174.084
-99.8183
-60.7295
-38.8657
-25.0628
-15.2734
-8.84588
-4.76724
-1.81898
-0.0516187
1.03558
1.80008
2.34132
2.70209
2.93355
3.07824
3.16203
3.19898
3.19595
3.15279
3.06214
2.89903
2.61156
2.09758
1.15158
27.1375
26.291
24.1917
20.6275
15.2141
7.22267
-4.55248
-22.079
-48.6315
-89.8073
-147.5
-220.209
-285.671
-294.174
-237.15
-164.652
-109.783
-74.4872
-51.5354
-35.6176
-24.3638
-16.9405
-11.9278
-8.33382
-5.78078
-3.95105
-2.56186
-1.46888
-0.608312
0.06811
0.603441
1.02916
1.36413
1.61788
1.78988
1.87326
1.84342
1.65392
1.23571
0.52077
24.4872
23.4256
20.8025
16.383
9.7387
0.139028
-13.5233
-32.7423
-59.3851
-95.3165
-140.505
-189.79
-228.58
-236.085
-206.191
-157.918
-113.924
-81.7161
-59.0183
-42.4398
-30.109
-21.0829
-14.4512
-9.56201
-5.97393
-3.35321
-1.42434
0.00666246
1.06429
1.83697
2.39393
2.78709
3.05142
3.20659
3.25202
3.198
3.01945
2.66619
2.05882
1.05415
23.1101
21.9485
19.0486
14.2261
6.9781
-3.33362
-17.7318
-37.3661
-63.4014
-96.2037
-134.292
-172.306
-200.338
-206.851
-187.662
-152.215
-115.155
-84.9422
-62.3907
-45.5
-32.7132
-23.1472
-16.1158
-10.9829
-7.28041
-4.59469
-2.62759
-1.17065
-0.0833918
0.729535
1.3367
1.78734
2.11556
2.34504
2.42147
2.41955
2.29594
1.99688
1.46589
0.637587
58.7531
60.0217
63.0812
68.0341
74.9832
84.1401
95.701
109.653
125.504
141.91
156.388
165.019
163.866
151.975
132.345
110.414
89.9119
72.0822
57.0771
44.8222
35.1016
27.5874
21.893
17.6148
14.3698
11.8506
9.86693
8.33636
7.1798
6.29947
5.61824
5.08417
4.66479
4.31478
3.99103
3.65289
3.2554
2.74944
2.05356
1.0647
57.7483
58.9953
62.0081
66.9085
73.8615
83.1824
95.2399
110.27
128.107
147.717
166.449
178.975
177.588
161.611
136.76
111.293
88.9319
70.1191
54.6754
42.3759
32.8692
25.6457
20.2283
16.2772
13.3249
11.0264
9.23109
7.85456
6.80414
5.99094
5.35131
4.84276
4.43263
4.08471
3.76346
3.43169
3.047
2.5547
1.88185
0.948283
55.7631
56.951
59.8287
64.5608
71.4166
80.8969
93.6961
110.598
132.24
158.454
185.924
206.153
205.579
180.327
145.364
113.885
88.041
67.2443
50.9005
38.3935
29.1065
22.469
17.7031
14.2452
11.4536
9.20162
7.52206
6.31916
5.44467
4.79225
4.30077
3.92888
3.64257
3.41052
3.20261
2.98534
2.7176
2.33951
1.76448
0.872879
52.8429
53.9112
56.5102
60.8487
67.3051
76.592
89.832
108.685
135.507
173.472
208.643
249.872
254.171
212.756
161.777
123.215
91.8318
67.6556
49.6703
36.4044
22.2327
15.9254
13.7535
12.4701
10.4878
8.45542
6.88994
5.75533
4.89444
4.22114
3.6968
3.2897
2.9719
2.71608
2.49873
2.29389
2.06406
1.74681
1.2337
0.344341
49.0917
49.9592
52.081
55.6801
61.1873
69.4319
81.8324
100.776
130.238
174.912
250.689
334.879
355.532
246.217
163.97
118.862
81.6482
55.9286
38.6082
27.2434
19.547
2.75346
2.93877
4.31974
4.06031
3.48339
3.10793
2.83972
2.59072
2.36058
2.16355
2.00023
1.86902
1.76402
1.68091
1.61292
1.54025
1.41422
1.11062
0.294932
44.696
45.2745
46.6974
49.1464
52.9919
58.958
68.3603
83.6398
109.562
164.245
257.683
450.534
609.399
232.54
161.612
111.182
66.035
40.2546
24.7015
15.1931
12.062
11.4867
10.9907
6.57949
3.5983
2.30114
1.71279
1.32302
1.02643
0.816853
0.677172
0.583344
0.521725
0.485027
0.471817
0.482945
0.52232
0.600772
0.75338
1.11994
39.9293
40.154
40.6947
41.6386
43.1684
45.6232
49.5934
56.0943
66.9118
106.54
182.972
415.59
1929.57
168.231
79.654
32.4651
17.122
8.28369
-2.67784
-9.55451
15.7877
15.034
8.93491
5.26745
3.77354
3.03268
2.47526
2.03093
1.70332
1.46788
1.29357
1.16289
1.06578
0.999345
0.964188
0.962212
1.00168
1.09946
1.27837
35.1448
34.992
34.5707
33.8556
32.7856
31.1992
28.7188
24.46
16.1681
18.8174
3.19368
-153.64
-981.557
-1026.48
-305.086
-98.1869
-44.2846
-24.7201
-16.1711
-10.357
-3.06734
-7.34931
-6.04966
-4.83367
-4.02369
-3.0862
-2.16902
-1.42879
-0.853906
-0.390541
-0.00775517
0.309021
0.571283
0.788518
0.969512
1.11922
1.23089
1.27662
1.1781
0.730442
30.7555
30.2333
28.9036
26.6379
23.1744
17.9744
10.0536
-2.41577
-22.9422
-45.8989
-117.657
-259.601
-466.904
-493.292
-312.266
-170.398
-97.7018
-59.652
-38.398
-24.9162
-15.1151
-8.68577
-4.91429
-2.13867
-0.39554
0.689497
1.43781
1.95559
2.29199
2.5
2.62332
2.68931
2.71342
2.70435
2.66467
2.5908
2.46238
2.23214
1.80371
0.988532
27.1136
26.2822
24.2207
20.7152
15.398
7.56606
-3.95113
-21.0638
-46.9571
-87.1135
-143.403
-214.394
-278.475
-286.452
-230.663
-160.19
-107.095
-73.0077
-50.7914
-35.3292
-24.3548
-17.0685
-12.1438
-8.57951
-6.03318
-4.20732
-2.82204
-1.73458
-0.882807
-0.21826
0.303933
0.716947
1.04146
1.28876
1.46176
1.55587
1.55033
1.40311
1.05245
0.445647
24.5224
23.4829
20.9087
16.5692
10.0609
0.667535
-12.6828
-31.442
-57.4204
-92.4405
-136.469
-184.462
-222.291
-229.719
-200.635
-153.862
-111.296
-80.1486
-58.1469
-42.0255
-30.0031
-21.1754
-14.6521
-9.83253
-6.28989
-3.69685
-1.78388
-0.363446
0.684484
1.44704
1.99411
2.37843
2.63583
2.78783
2.84211
2.80073
2.64473
2.33181
1.79457
0.922957
23.1811
22.0313
19.2009
14.4528
7.37551
-2.71348
-16.7778
-35.9469
-61.3098
-93.2989
-130.429
-167.481
-194.842
-201.358
-182.868
-148.46
-112.549
-83.3122
-61.4373
-45.005
-32.5265
-23.1701
-16.2747
-11.2414
-7.58062
-4.91454
-2.95846
-1.50748
-0.424098
0.385102
0.988112
1.43411
1.75617
1.97221
2.08049
2.09115
1.9836
1.71849
1.25228
0.558237
57.6061
58.7982
61.6666
66.2943
72.7809
81.3254
92.114
105.123
119.892
135.183
148.634
156.579
155.382
144.109
125.611
104.99
85.6838
68.8029
54.5248
42.8287
33.5455
26.3437
20.8551
16.7338
13.6156
11.1942
9.29247
7.81583
6.68462
5.81785
5.14682
4.62112
4.2023
3.85518
3.54419
3.23128
2.87331
2.41635
1.78906
0.901224
56.6293
57.8035
60.6235
65.1995
71.6873
80.3821
91.6279
105.643
122.279
140.576
158.085
169.581
168.217
153.053
129.641
105.744
84.6957
66.8655
52.1618
40.4452
31.4076
24.4843
19.2798
15.511
12.7057
10.5013
8.75348
7.38943
6.33032
5.50107
4.84576
4.32453
3.90447
3.55442
3.24359
2.938
2.59727
2.16748
1.57976
0.765035
54.7026
55.8215
58.5102
62.9222
69.311
78.1449
90.0748
105.841
126.062
150.613
176.391
195.523
194.593
170.469
137.575
108.137
83.8191
64.0702
48.4865
36.6125
27.9965
21.6494
17.0074
13.6977
11.0602
8.89995
7.2407
6.01379
5.09628
4.39696
3.86284
3.45696
3.14721
2.90555
2.70492
2.51631
2.30204
2.00519
1.5368
0.765494
51.8724
52.8767
55.2983
59.3316
65.3333
73.9722
86.3062
103.914
129.065
164.879
199.599
239.133
242.826
202.518
154.009
117.753
87.8983
64.6918
47.3756
34.6484
21.2744
15.8747
13.7278
12.2543
10.0857
7.87711
6.14257
4.85665
3.87231
3.10741
2.52198
2.08233
1.75741
1.51859
1.34347
1.20989
1.08731
0.920952
0.607381
-0.029319
48.2444
49.056
51.0224
54.35
59.4465
67.0934
78.6367
96.3614
124.135
167.787
240.987
322.577
341.598
234.157
156.33
114.311
78.4581
53.3649
36.4408
25.369
18.1622
3.68407
4.6341
5.86441
5.05866
3.88886
3.01745
2.36291
1.82552
1.3922
1.06212
0.823207
0.663825
0.569646
0.533934
0.551699
0.614966
0.690895
0.666143
0.145187
43.9886
44.5366
45.8391
48.0738
51.5953
57.0899
65.8159
80.1319
104.723
158.304
250.226
439.884
593.392
218.536
154.258
108.52
64.0455
38.3622
22.986
13.5565
11.7979
5.40644
5.80166
2.20592
-0.66952
-2.05524
-2.67989
-3.03612
-3.2499
-3.34135
-3.33843
-3.27696
-3.16763
-3.02229
-2.8403
-2.61102
-2.30858
-1.88332
-1.221
0.0277163
39.3949
39.5988
40.0646
40.8757
42.2096
44.392
47.9947
54.0362
64.3674
103.425
179.563
412.738
1905.23
169.313
83.2762
33.7606
17.1462
7.71432
-3.18642
-12.9765
12.6582
11.1439
5.03532
1.57229
0.267913
-0.306879
-0.704684
-0.995836
-1.17979
-1.28047
-1.32615
-1.33429
-1.30246
-1.2279
-1.09721
-0.884517
-0.548848
-0.00894165
0.885618
34.7889
34.6298
34.1847
33.4279
32.3073
30.676
28.193
24.0607
16.2256
19.1532
5.07976
-145.392
-959.978
-1004.87
-290.678
-90.3098
-40.8001
-23.6147
-16.1857
-10.8628
-4.44776
-9.79535
-9.20791
-8.11004
-7.00801
-5.72295
-4.50809
-3.5167
-2.73027
-2.09268
-1.56588
-1.12726
-0.760315
-0.446672
-0.165344
0.0997756
0.36066
0.607617
0.773312
0.598986
30.563
30.0519
28.7507
26.5295
23.1499
18.1114
10.4973
-1.39707
-20.8589
-42.9948
-111.399
-247.902
-448.282
-473.382
-297.459
-161.331
-92.8406
-57.3174
-37.4476
-24.7454
-15.542
-10.3357
-6.70757
-3.89066
-2.08383
-0.930581
-0.104699
0.495135
0.910836
1.19191
1.38387
1.51585
1.60587
1.66558
1.70561
1.72913
1.72643
1.66159
1.44327
0.86395
27.0637
26.2625
24.2633
20.8714
15.7429
8.22307
-2.78228
-19.0589
-43.5961
-81.5888
-134.881
-202.235
-263.22
-270.859
-217.96
-151.58
-101.943
-70.152
-49.325
-34.7568
-24.4563
-17.8038
-12.9852
-9.44855
-6.97171
-5.19003
-3.79597
-2.6662
-1.7593
-1.03674
-0.456584
0.0126603
0.392569
0.69396
0.926677
1.09058
1.17223
1.13747
0.926645
0.465284
24.5773
23.5742
21.093
16.9142
10.6647
1.67295
-11.0621
-28.8988
-53.5326
-86.6835
-128.342
-173.781
-209.754
-217.009
-189.743
-145.849
-106.017
-76.8809
-56.2074
-40.9836
-29.6079
-21.2465
-14.9662
-10.2955
-6.87694
-4.37462
-2.51047
-1.10705
-0.0573062
0.718375
1.2864
1.69756
1.98739
2.17763
2.28113
2.29917
2.21835
2.0047
1.59729
0.884475
23.2931
22.1837
19.4598
14.8932
8.11057
-1.536
-14.9416
-33.1652
-57.2194
-87.5221
-122.676
-157.782
-183.808
-190.24
-173.101
-140.934
-107.325
-79.9294
-59.3408
-43.794
-31.9439
-23.0309
-16.4197
-11.5547
-7.9999
-5.40979
-3.50331
-2.07615
-0.997236
-0.179739
0.439898
0.908574
1.25829
1.50714
1.66308
1.72487
1.67959
1.49839
1.14331
0.581497
56.0259
57.1098
59.7026
63.8751
69.7124
77.3869
87.0565
98.6875
111.855
125.444
137.322
144.193
142.889
132.516
115.694
97.0055
79.4476
63.9772
50.7981
39.9504
31.3036
24.524
19.2541
15.2258
12.1746
9.83639
8.02852
6.6412
5.58951
4.79531
4.19098
3.72635
3.36397
3.07207
2.81974
2.57407
2.29675
1.93898
1.43632
0.706653
55.0872
56.1551
58.7009
62.8199
68.6489
76.4457
86.5088
99.0217
113.841
130.108
145.667
155.546
154.138
140.243
119.035
97.4765
78.3752
62.0352
48.4743
37.6441
29.2641
22.6583
17.529
13.7803
11.0457
8.95396
7.32541
6.07187
5.11447
4.38026
3.81265
3.37107
3.02396
2.74353
2.50412
2.2782
2.03208
1.7183
1.27184
0.617459
53.2398
54.2559
56.6755
60.633
66.3532
74.2486
84.892
98.9371
116.937
138.796
161.746
178.807
177.402
155.259
125.67
99.3162
77.3069
59.2106
44.8491
33.9407
26.1492
19.7831
14.6901
11.2224
8.77118
6.89672
5.49013
4.46995
3.72854
3.18014
2.77452
2.47837
2.26467
2.10923
1.99401
1.89899
1.798
1.64337
1.34611
0.734201
50.5311
51.441
53.6079
57.2038
62.5469
70.2295
81.1916
96.8455
119.258
151.344
184.507
220.768
223.491
185.624
141.533
108.873
81.392
59.843
43.724
31.9302
19.064
13.292
10.1539
8.41647
6.67228
5.04289
3.79802
2.89629
2.21488
1.68498
1.27786
0.975817
0.757727
0.603901
0.508796
0.465905
0.466116
0.475835
0.402071
0.000600691
47.0653
47.7987
49.5403
52.4755
56.9699
63.7195
73.931
89.6695
114.511
155.632
223.437
299.743
316.356
213.977
144.707
106.803
72.6913
48.7476
32.6766
22.1999
15.5058
-3.58098
-2.00007
0.342582
0.502319
0.109434
-0.158614
-0.345157
-0.519515
-0.676539
-0.803516
-0.88974
-0.940632
-0.957001
-0.925785
-0.830104
-0.644895
-0.359269
-0.0433589
-0.119944
43.0164
43.5008
44.6275
46.5519
49.5933
54.367
62.006
74.6706
96.7527
147.445
235.419
417.941
562.574
196.81
153.192
106.23
61.1712
34.9645
19.4179
9.51653
6.54984
-7.6237
-2.92726
-2.52065
-3.30942
-3.64966
-3.71695
-3.79342
-3.90617
-4.01158
-4.09146
-4.15452
-4.18616
-4.18091
-4.11803
-3.96009
-3.64108
-3.04423
-1.96511
-0.0856745
38.6506
38.8191
39.1741
39.7897
40.8272
42.5778
45.5587
50.7309
59.9174
97.1327
171.392
403.09
1860.18
211.774
86.0488
31.816
12.2599
2.47698
-6.86603
-10.776
16.2303
12.8006
5.12065
0.719892
-1.36543
-2.55565
-3.38549
-3.96845
-4.34904
-4.58184
-4.70476
-4.7597
-4.75231
-4.6645
-4.46953
-4.10717
-3.47118
-2.37394
-0.512178
34.2894
34.118
33.6346
32.8131
31.6079
29.8845
27.3435
23.2926
15.9597
18.9973
7.07346
-131.862
-906.311
-963.261
-268.976
-80.8093
-38.2583
-24.3039
-18.0116
-12.8735
-5.85068
-8.32055
-7.74761
-7.02225
-6.25395
-5.32455
-4.43111
-3.70323
-3.13516
-2.68361
-2.31769
-2.00728
-1.75839
-1.54201
-1.32338
-1.07356
-0.757275
-0.344548
0.135076
0.363642
30.2883
29.7914
28.5239
26.3617
23.0935
18.2715
11.0768
-0.00671959
-17.9076
-38.507
-101.401
-227.992
-415.263
-438.016
-272.348
-147.314
-86.0188
-54.4218
-36.5653
-25.0073
-16.6922
-11.9417
-7.31733
-4.02387
-2.36268
-1.52378
-0.972683
-0.587426
-0.339082
-0.184093
-0.0810918
-0.00528009
0.0528519
0.107194
0.171822
0.256313
0.363943
0.481407
0.541509
0.367797
26.981
26.2162
24.3055
21.0721
16.2088
9.12829
-1.14815
-16.2119
-38.7311
-73.3813
-121.924
-183.338
-238.992
-246.123
-198.416
-138.778
-94.4835
-66.053
-47.2285
-33.9601
-24.6023
-18.6019
-13.3486
-9.478
-7.01472
-5.36024
-4.08204
-3.04875
-2.2278
-1.58077
-1.06417
-0.645496
-0.304938
-0.027797
0.200701
0.385368
0.521926
0.589704
0.540722
0.307509
24.6342
23.6812
21.3279
17.3744
11.4871
3.06287
-8.79533
-25.2967
-47.9509
-78.2953
-116.319
-157.754
-190.692
-197.605
-173.267
-133.951
-98.297
-72.1041
-53.3379
-39.4041
-28.9541
-21.2129
-15.1352
-10.5101
-7.16593
-4.76993
-3.01008
-1.69847
-0.728324
-0.0198787
0.494168
0.865261
1.12891
1.30825
1.41946
1.46668
1.44187
1.32155
1.06099
0.591891
23.425
22.3728
19.7966
15.4892
9.11613
0.09373
-12.3812
-29.2479
-51.402
-79.2017
-111.37
-143.483
-167.397
-173.611
-158.518
-129.824
-99.6963
-74.9809
-56.2382
-41.9638
-31.0174
-22.7249
-16.4643
-11.742
-8.25442
-5.72646
-3.88206
-2.50983
-1.47804
-0.70151
-0.117066
0.323005
0.651646
0.889587
1.04834
1.12945
1.12423
1.01366
0.773597
0.40289
54.141
55.0916
57.3496
60.9703
66.0175
72.6248
80.9067
90.8057
101.926
113.285
123.053
128.489
126.952
117.712
103.062
86.8453
71.5139
57.8568
46.102
36.3581
28.5705
22.4692
17.7012
13.9899
11.1349
8.93851
7.24042
5.93228
4.93417
4.17804
3.59744
3.14506
2.78954
2.50449
2.26475
2.04334
1.80784
1.51848
1.12138
0.539406
53.2469
54.1834
56.395
59.9583
64.9816
71.6696
80.2524
90.851
103.298
116.815
129.514
137.358
135.726
123.532
105.28
86.7694
70.2003
55.8347
43.7995
34.1557
26.7426
20.9442
16.3912
12.9056
10.2702
8.23039
6.63145
5.38671
4.42922
3.70181
3.13989
2.70085
2.35654
2.08348
1.86205
1.66881
1.4774
1.25092
0.937059
0.45973
51.4917
52.3801
54.4704
57.872
62.7679
69.491
78.4974
90.2956
105.294
123.36
142.212
155.778
153.788
134.626
109.6
87.3315
68.4527
52.6737
40.0381
30.5328
24.2222
18.9751
14.2141
10.7513
8.3559
6.57323
5.2157
4.18984
3.41908
2.82158
2.36286
2.01639
1.7598
1.56972
1.43338
1.33958
1.2764
1.21428
1.08422
0.697934
48.9272
49.7163
51.5693
54.6267
59.1497
65.6197
74.7952
87.8075
106.32
132.718
162.748
193.21
194.492
161.016
123.501
95.7326
71.7916
52.8629
38.6422
28.4846
19.2542
16.7437
11.6516
7.87882
5.3086
3.42484
2.07086
1.1284
0.449518
-0.0550986
-0.425361
-0.685153
-0.856143
-0.963788
-1.00817
-0.979041
-0.861942
-0.648526
-0.363769
-0.180501
45.656
46.2828
47.7459
50.1947
53.9309
59.5232
67.95
80.8913
101.299
137.702
195.374
261.218
273.851
182.045
125.609
93.0814
62.5025
41.1792
27.0222
18.356
15.0399
7.96315
5.77263
4.19586
2.55301
1.13989
0.0839353
-0.713827
-1.36006
-1.89395
-2.33118
-2.66944
-2.92115
-3.09997
-3.1896
-3.1463
-2.9149
-2.40659
-1.54527
-0.58534
41.8434
42.2471
43.1543
44.6904
47.1194
50.9413
57.0724
67.2841
85.2397
130.008
208.93
374.656
504.429
158.667
142.638
96.3685
51.4468
26.7671
12.8493
4.61706
-1.55603
-28.5652
-25.7144
-24.2298
-23.5671
-22.658
-21.7415
-21.0042
-20.4028
-19.87
-19.3777
-18.9339
-18.5049
-18.0528
-17.5468
-16.9276
-16.0718
-14.7215
-12.2992
-7.37325
37.7496
37.871
38.0853
38.4519
39.1032
40.2643
42.3434
46.1155
53.1171
85.9693
153.844
374.56
1776.55
253.668
82.4829
21.559
2.31457
-6.2177
-13.6799
-21.8394
-1.14045
-4.02363
-9.26014
-11.807
-12.7168
-13.1085
-13.347
-13.4735
-13.4941
-13.4369
-13.3417
-13.1785
-12.9515
-12.6409
-12.1863
-11.4729
-10.2673
-8.13338
-4.43516
33.6719
33.4865
32.9528
32.0438
30.7164
28.8433
26.1534
22.048
15.06
17.5242
7.43419
-115.752
-822.19
-855.691
-231.622
-71.7162
-39.719
-29.0206
-23.4322
-18.4122
-13.2819
-22.1649
-18.0541
-14.2018
-11.9741
-10.3676
-9.08612
-8.11457
-7.39379
-6.84707
-6.42089
-6.0716
-5.78487
-5.52446
-5.24825
-4.90346
-4.41706
-3.67834
-2.57375
-1.20443
29.94
29.4598
28.2259
26.1282
22.9841
18.4073
11.6971
1.57893
-14.3863
-32.7708
-87.5971
-197.989
-361.634
-379.329
-234.825
-129.044
-78.1592
-51.5659
-36.1167
-26.1882
-20.4068
-19.3652
-12.824
-7.71766
-5.22819
-3.94279
-3.06769
-2.4405
-2.01713
-1.73562
-1.54045
-1.39885
-1.29121
-1.18844
-1.06896
-0.908763
-0.680253
-0.359374
0.0325768
0.291059
26.8583
26.1354
24.3286
21.2811
16.7328
10.1802
0.793461
-12.7591
-32.6942
-62.8957
-104.773
-157.379
-204.736
-211.22
-171.705
-122.111
-85.0724
-60.8936
-44.5369
-32.9257
-24.9739
-20.3776
-15.1577
-10.9682
-8.26725
-6.43482
-5.00969
-3.8615
-2.95579
-2.2478
-1.68901
-1.24145
-0.883071
-0.587449
-0.336216
-0.114726
0.0857012
0.261528
0.377595
0.332157
24.6752
23.7818
21.5796
17.8939
12.4416
4.70624
-6.07365
-20.9101
-41.047
-67.7256
-100.846
-136.667
-165.177
-171.515
-151.4
-118.572
-88.4814
-65.9856
-49.553
-37.2039
-27.9424
-21.1481
-15.6809
-11.2885
-7.99194
-5.58124
-3.78457
-2.42714
-1.40845
-0.65249
-0.093777
0.318619
0.620845
0.839979
0.994616
1.09454
1.13948
1.11469
0.980844
0.644592
23.5529
22.5684
20.1669
16.1672
10.2845
2.01958
-9.30945
-24.4886
-44.2447
-68.8248
-97.0669
-125.137
-146.1
-151.904
-139.526
-115.505
-89.9318
-68.6077
-52.1502
-39.4442
-29.6289
-22.1711
-16.488
-12.074
-8.71552
-6.22858
-4.383
-2.98804
-1.92307
-1.10975
-0.488977
-0.0147505
0.346086
0.616411
0.810183
0.933383
0.982462
0.943795
0.794668
0.506413
52.0965
52.9006
54.7922
57.8092
61.9903
67.4227
74.1676
82.1318
90.937
99.734
107.029
110.721
108.817
100.855
88.7165
75.3394
62.5783
51.0412
40.9432
32.4235
25.4878
19.9787
15.668
12.3199
9.72671
7.7075
6.13113
4.90758
3.9687
3.26492
2.72476
2.3026
1.97238
1.70886
1.49464
1.30669
1.11454
0.892286
0.606234
0.223858
51.2498
52.0414
53.8867
56.8407
60.9783
66.4406
73.3734
81.8125
91.536
101.812
111.029
116.346
114.247
104.082
89.387
74.4771
60.9218
48.9227
38.6553
30.2136
23.4819
18.2268
14.1464
11.0192
8.61579
6.73112
5.24484
4.07007
3.14681
2.49129
1.98627
1.58805
1.27159
1.01867
0.823908
0.667866
0.529388
0.384005
0.208535
0.00527252
49.5928
50.3401
52.0679
54.8577
58.843
64.2605
71.421
80.6374
92.0865
105.463
118.923
127.848
125.073
109.642
90.1427
72.865
57.9678
45.1294
34.5421
26.1744
19.7318
15.0887
11.2637
8.36559
6.18591
4.51566
3.26832
2.30514
1.61776
1.04826
0.61972
0.311515
0.0997422
-0.0342771
-0.117043
-0.147737
-0.129211
-0.0666167
0.0163166
0.0585525
47.182
47.8377
49.3435
51.8061
55.417
60.5227
67.6499
77.5427
91.2274
109.986
134.677
156.12
155.676
129.102
99.9599
78.2236
59.2653
43.9541
32.1398
23.3935
12.2189
9.60207
6.36908
3.74319
1.5705
-0.130327
-1.39639
-2.25004
-2.87957
-3.35496
-3.69595
-3.91962
-4.048
-4.10581
-4.09115
-3.97852
-3.74209
-3.32839
-2.65311
-1.54005
44.1268
44.6257
45.7801
47.6897
50.5758
54.8486
61.1849
70.7151
85.3781
114.345
155.456
201.963
206.682
135.081
94.9273
70.2639
46.694
29.968
18.6687
11.8602
10.2004
-1.52195
-3.08491
-4.46078
-5.88025
-7.11103
-7.99532
-8.54005
-8.90841
-9.17551
-9.36508
-9.49249
-9.52796
-9.46894
-9.35443
-9.09847
-8.62
-7.76194
-6.25025
-3.62622
40.5539
40.8708
41.5343
42.637
44.3732
47.0908
51.4114
58.5063
70.7456
105.288
165.713
291.154
385.261
96.2678
108.013
57.1919
21.9544
3.51196
-6.50581
-11.6072
-10.6155
-24.6698
-26.119
-30.0685
-31.3169
-31.0466
-30.4465
-29.8806
-29.3101
-28.7094
-28.086
-27.4315
-26.7883
-26.1395
-25.3899
-24.4795
-23.2594
-21.3705
-17.9707
-10.9748
36.7582
36.8217
36.8787
36.9653
37.1721
37.637
38.5981
40.4982
44.2139
68.8873
120.818
302.47
1587.38
258.738
-11.9412
-55.6537
-65.1797
-66.8287
-65.5598
-60.5811
-34.2279
-33.38
-35.7102
-36.153
-35.4557
-34.5652
-33.7202
-32.8814
-32.025
-31.1588
-30.3138
-29.4603
-28.5544
-27.6038
-26.5155
-25.1322
-23.0793
-19.4876
-12.1006
32.9842
32.7786
32.185
31.1727
29.6972
27.6298
24.708
20.3995
13.5289
14.3164
5.03127
-91.5014
-657.12
-651.374
-184.95
-74.0939
-50.8751
-41.6205
-35.8663
-30.6232
-28.3847
-31.1485
-26.8798
-22.9118
-20.5175
-18.7228
-17.2861
-16.1692
-15.2898
-14.5746
-13.9739
-13.4574
-13.0117
-12.5579
-12.0817
-11.5264
-10.7879
-9.68021
-7.86647
-4.69315
29.5395
29.0762
27.872
25.8381
22.822
18.499
12.2969
3.2281
-10.4366
-26.1671
-70.1189
-154.824
-277.754
-291.392
-185.37
-107.653
-69.2496
-48.0206
-35.0046
-26.5836
-23.9893
-19.2795
-15.1082
-11.8018
-9.83681
-8.53919
-7.54796
-6.78241
-6.20112
-5.75262
-5.3932
-5.09295
-4.83681
-4.59079
-4.3312
-4.02927
-3.64147
-3.10709
-2.3447
-1.253
26.6982
26.018
24.321
21.4714
17.2618
11.2818
2.87051
-8.99439
-25.951
-50.8431
-84.4316
-125.286
-161.098
-167.092
-138.788
-101.868
-73.3072
-53.8147
-40.0297
-29.9169
-22.7576
-18.7545
-15.0075
-11.8617
-9.5265
-7.76965
-6.37519
-5.25367
-4.36012
-3.64866
-3.07702
-2.6111
-2.22918
-1.9036
-1.61449
-1.34419
-1.07873
-0.806476
-0.523961
-0.224482
24.6898
23.8606
21.8196
18.4223
13.4418
6.46045
-3.12813
-16.1032
-33.3717
-55.7617
-82.9855
-111.872
-134.73
-140.175
-125.324
-100.511
-76.8952
-58.5322
-44.6352
-33.917
-25.7127
-19.6748
-15.0078
-11.2929
-8.4394
-6.29421
-4.66957
-3.42894
-2.48258
-1.76317
-1.21523
-0.795828
-0.473321
-0.223236
-0.0285218
0.120925
0.226463
0.281026
0.269653
0.186328
23.6596
22.7475
20.534
16.8661
11.5163
4.08145
-5.9813
-19.277
-36.3222
-57.2013
-80.8465
-104.087
-121.408
-126.574
-117.388
-98.7701
-78.4185
-60.9003
-46.9559
-35.9272
-27.2537
-20.5943
-15.5405
-11.6558
-8.68609
-6.44234
-4.74436
-3.44633
-2.44812
-1.67999
-1.08866
-0.632152
-0.27958
-0.00955943
0.191911
0.331842
0.408108
0.411517
0.335563
0.212093
50.0456
50.7004
52.2252
54.6379
57.9522
62.2096
67.4177
73.45
79.9469
86.1926
91.0282
92.9551
90.6721
84.0004
74.3569
63.79
53.597
44.2175
35.8354
28.6094
22.6008
17.7513
13.9452
11.0371
8.80295
7.04964
5.66776
4.59096
3.7632
3.13318
2.64797
2.26951
1.97247
1.73538
1.53919
1.36278
1.18016
0.962099
0.67104
0.262611
49.2461
49.8886
51.3673
53.7118
56.963
61.1992
66.483
72.7673
79.7796
86.8475
92.6774
95.2459
92.5319
84.3661
73.2629
61.982
51.5402
42.0534
33.6899
26.6033
20.7779
16.1012
12.4923
9.85
7.86093
6.29926
5.06532
4.09493
3.3357
2.74935
2.28759
1.91978
1.62624
1.39074
1.20038
1.04048
0.891333
0.727574
0.51412
0.20504
47.686
48.2865
49.6533
51.8309
54.905
59.0173
64.3339
70.975
78.8931
87.627
95.7402
99.979
95.9976
83.8946
69.7827
57.5039
46.738
36.9987
28.5571
21.5746
15.9076
11.5294
8.78201
6.85338
5.23289
3.91537
2.93082
2.21139
1.68647
1.28891
0.994828
0.784141
0.638935
0.542964
0.48512
0.463797
0.475092
0.504358
0.509521
0.362471
45.4241
45.9401
47.103
48.972
51.6706
55.4124
60.4924
67.2687
76.1297
87.3625
99.1734
107.269
100.585
80.5657
62.77
50.3377
39.6309
30.1597
22.2304
15.5924
8.94685
2.76016
2.78402
3.15538
2.50576
1.56521
0.757438
0.125781
-0.388093
-0.809463
-1.1398
-1.38312
-1.54769
-1.64533
-1.67374
-1.61564
-1.45203
-1.15662
-0.720097
-0.220312
42.5672
42.9518
43.7969
45.1701
47.2048
50.1549
54.3903
60.4598
69.1376
89.0432
110.283
130.819
123.766
81.0226
57.2173
44.8406
30.7361
19.6791
11.8435
6.29088
0.83864
-13.3242
-10.7333
-7.69536
-6.34995
-5.71696
-5.30581
-5.01525
-4.83847
-4.74834
-4.70945
-4.69186
-4.67308
-4.63736
-4.55081
-4.36128
-4.00021
-3.3588
-2.31752
-0.898198
39.2688
39.4803
39.8949
40.5647
41.6064
43.2148
45.7049
49.6006
55.7875
77.426
104.906
149.134
165.698
25.6854
19.2073
3.90925
-4.63421
-8.9317
-12.2846
-14.7316
-20.827
-13.5612
-14.6155
-16.2705
-16.7425
-16.6654
-16.4707
-16.2707
-16.0597
-15.8291
-15.5775
-15.2876
-14.9807
-14.6469
-14.2211
-13.642
-12.797
-11.4463
-9.13237
-5.07397
35.7562
35.7528
35.6481
35.4547
35.2162
34.9796
34.7996
34.7419
34.8679
48.7575
60.3837
131.191
174.907
-679.997
-128.208
-91.6544
-67.806
-62.2936
-57.9854
-54.5021
-65.8359
-39.682
-37.4303
-35.4051
-33.5784
-31.7525
-30.1171
-28.7134
-27.48
-26.3722
-25.3676
-24.4518
-23.6039
-22.7633
-21.8952
-20.9321
-19.7521
-18.0649
-15.2337
-9.61851
32.2811
32.048
31.3913
30.2744
28.6508
26.3844
23.207
18.6139
11.6211
9.87666
-12.0819
-80.4409
-303.284
-255.277
-104.985
-57.5701
-37.6294
-28.6606
-23.3504
-18.7883
-10.7953
4.77698
1.771
-1.97961
-3.602
-4.32211
-4.75602
-5.04744
-5.23228
-5.34037
-5.39731
-5.42545
-5.41708
-5.34461
-5.1915
-4.93261
-4.50033
-3.77191
-2.59663
-1.04898
29.116
28.6634
27.4903
25.52
22.6317
18.5585
12.8378
4.6823
-7.36857
-26.2961
-50.4238
-104.761
-174.668
-185.91
-128.263
-81.708
-55.6548
-39.6655
-29.1972
-21.5081
-11.3474
-2.21913
-2.95232
-4.24743
-4.20193
-3.69864
-3.21178
-2.80658
-2.47068
-2.19613
-1.9747
-1.79362
-1.64287
-1.507
-1.35436
-1.16322
-0.909858
-0.56507
-0.147769
0.128412
26.5119
25.8753
24.2827
21.6307
17.7604
12.3534
4.91486
-5.28506
-19.2846
-38.4208
-63.3781
-91.8374
-115.816
-121.042
-104.434
-80.381
-60.1295
-45.2782
-34.1306
-25.2533
-17.7599
-12.551
-9.55274
-7.39819
-5.51087
-3.96072
-2.78071
-1.89707
-1.23143
-0.729226
-0.350423
-0.0630847
0.154611
0.325344
0.472083
0.606547
0.732663
0.839472
0.871325
0.650726
24.6742
23.9074
22.0278
18.9192
14.4124
8.18829
-0.203005
-11.3054
-25.6718
-43.6279
-64.6366
-86.3495
-103.126
-107.91
-98.6972
-81.7266
-64.5598
-50.3523
-39.0456
-29.9167
-22.5045
-16.7062
-12.2321
-8.91065
-6.411
-4.50387
-3.05259
-1.94987
-1.11054
-0.471202
0.0150348
0.384095
0.662881
0.872107
1.02629
1.13267
1.18732
1.17035
1.03414
0.67707
23.7334
22.8952
20.8684
17.5332
12.7189
6.11815
-2.67179
-14.0684
-28.3677
-45.4655
-64.3687
-82.6215
-96.1458
-100.646
-94.6604
-81.4188
-66.2199
-52.4851
-41.0834
-31.7478
-24.1533
-18.1126
-13.4363
-9.89131
-7.18905
-5.10078
-3.48376
-2.23677
-1.27837
-0.543477
0.0182149
0.445251
0.766937
1.00406
1.16957
1.26936
1.29775
1.23671
1.05105
0.683593
48.1334
48.647
49.8313
51.6893
54.2092
57.3943
61.21
65.5108
69.9706
74.0151
76.8009
77.3431
74.8935
69.4759
62.0612
53.9589
46.0156
38.5587
31.7589
25.7851
20.7414
16.6342
13.3945
10.8866
8.91722
7.33657
6.06694
5.05951
4.26864
3.64982
3.16328
2.77718
2.46625
2.20856
1.98373
1.77041
1.5414
1.26342
0.893871
0.378298
47.3778
47.8793
49.0172
50.805
53.2452
56.3677
60.1684
64.5442
69.2073
73.5823
76.719
77.3676
74.4966
68.2371
60.1283
51.7969
43.8912
36.5168
29.8413
24.0612
19.2546
15.4063
12.4566
10.2163
8.44559
7.00818
5.8468
4.91582
4.16949
3.56925
3.08404
2.68948
2.36571
2.09483
1.86027
1.64571
1.42822
1.17569
0.842457
0.36871
45.9074
46.3694
47.3977
49.019
51.2656
54.2031
57.886
62.2961
67.2426
72.193
76.0121
76.8436
72.8279
64.4935
55.0832
46.7099
39.1625
32.0303
25.5861
20.121
15.6946
12.3564
10.1228
8.37236
6.80113
5.46338
4.41354
3.61345
3.00155
2.52949
2.16617
1.88826
1.67731
1.51766
1.39611
1.30197
1.21929
1.11829
0.938362
0.549104
43.7847
44.171
45.0113
46.3383
48.217
50.7481
54.0523
58.2231
63.2403
68.7519
73.5204
74.7104
68.6205
56.6502