/*--------------------------------*- C++ -*----------------------------------*\
| =========                 |                                                 |
| \\      /  F ield         | OpenFOAM: The Open Source CFD Toolbox           |
|  \\    /   O peration     | Version:  2306                                  |
|   \\  /    A nd           | Website:  www.openfoam.com                      |
|    \\/     M anipulation  |                                                 |
\*---------------------------------------------------------------------------*/
FoamFile
{
    version     2.0;
    format      ascii;
    arch        "LSB;label=32;scalar=64";
    class       surfaceScalarField;
    location    "0.25";
    object      phi;
}
// * * * * * * * * * * * * * * * * * * * * * * * * * * * * * * * * * * * * * //

dimensions      [0 3 -1 0 0 0 0];

oriented        oriented;

internalField   nonuniform List<scalar> 
338621
(
24.9951
0.00208388
0.0014932
24.9876
0.00454055
0.00305288
24.9755
0.00732844
0.00481401
24.9584
0.0103208
0.0069224
24.9353
0.0136344
0.00968921
24.9026
0.0196808
0.0132777
24.856
0.0292456
0.0177892
24.793
0.0399421
0.0235163
24.731
0.0318626
0.0306647
24.6876
0.00482942
0.0391077
24.659
-0.0193583
0.0486472
24.5847
0.0162624
0.0587676
24.6129
-0.0965565
0.069071
24.7431
-0.208067
0.0785513
24.7851
-0.127859
0.0865614
24.8181
-0.125258
0.0927779
24.8481
-0.126968
0.0973824
24.8728
-0.125461
0.101017
24.8937
-0.124615
0.103887
24.9213
-0.133876
0.106323
24.9517
-0.138545
0.108248
24.9744
-0.132701
0.109995
24.9914
-0.128572
0.111615
25.0048
-0.12642
0.112968
25.0158
-0.125196
0.114203
25.0247
-0.124215
0.115332
25.0321
-0.123751
0.116279
25.0383
-0.123209
0.117032
25.0433
-0.122713
0.117685
25.0476
-0.122503
0.118211
25.0514
-0.122323
0.118594
25.0547
-0.122193
0.118813
25.0578
-0.122057
0.118986
25.0606
-0.121941
0.119099
25.0634
-0.121892
0.11912
25.0666
-0.12225
0.119087
25.0702
-0.122549
0.118963
25.0743
-0.123008
0.118833
25.0794
-0.123698
0.118661
-0.124892
0.118212
24.9951
0.00416757
0.0014604
24.9875
0.00924631
0.00295111
24.975
0.0152196
0.00468219
24.9577
0.0209348
0.00676074
24.9346
0.0275287
0.00949128
24.9051
0.0364716
0.0129578
24.8694
0.0477575
0.0175018
24.8236
0.0628187
0.0233003
24.759
0.0663313
0.0306131
24.6842
0.0406391
0.0394615
24.6411
-0.0254909
0.0497928
24.6275
-0.0303407
0.060788
24.6657
-0.206938
0.0726922
24.7494
-0.374764
0.0834773
24.8299
-0.300047
0.0922613
24.8989
-0.292783
0.0988603
24.9524
-0.283905
0.103674
24.9961
-0.276379
0.10739
25.0425
-0.281311
0.11037
25.0775
-0.281588
0.112745
25.0983
-0.274066
0.114734
25.1127
-0.263471
0.116413
25.1219
-0.255813
0.117976
25.1287
-0.252464
0.119251
25.1333
-0.250173
0.120351
25.1365
-0.248699
0.121283
25.1381
-0.247414
0.122117
25.1391
-0.247011
0.122809
25.1398
-0.246831
0.123404
25.1399
-0.246499
0.123902
25.1397
-0.246469
0.124302
25.1391
-0.246232
0.124611
25.1388
-0.246558
0.12486
25.1385
-0.246706
0.125045
25.1384
-0.247005
0.12516
25.1387
-0.247792
0.125255
25.1396
-0.248645
0.125234
25.1412
-0.249874
0.125207
25.1442
-0.251742
0.125073
-0.253361
0.124676
24.9954
0.00595232
0.00138278
24.9878
0.014093
0.00279256
24.9759
0.0227626
0.00440021
24.958
0.0325158
0.00644705
24.9337
0.0429478
0.00907031
24.9025
0.0554444
0.0124673
24.8625
0.0709994
0.017025
24.8132
0.0894765
0.0229188
24.7442
0.105071
0.030613
24.6463
0.0985115
0.0404005
24.5696
0.00502574
0.0523462
-0.00639969
0.00556873
-0.00493308
24.666
-0.0389055
0.06618
-0.0586202
-0.0375071
-0.0575489
24.5579
-0.0110483
0.0793345
-0.095304
0.0219785
-0.0935605
24.7302
-0.181863
0.0919587
-0.123573
-0.211516
-0.121732
24.8235
-0.128492
0.101355
-0.121135
-0.126193
-0.118618
24.885
-0.117732
0.107996
-0.115839
-0.115056
-0.113456
24.9402
-0.114073
0.112719
-0.11432
-0.111946
-0.111487
25.0076
-0.11672
0.116395
-0.115663
-0.114429
-0.113375
25.0521
-0.11313
0.119392
-0.111679
-0.110915
-0.109588
25.079
-0.109191
0.12173
-0.108062
-0.107041
-0.105957
25.0979
-0.416724
0.123691
25.112
-0.402852
0.125282
25.1201
-0.390675
0.126682
25.1258
-0.385959
0.127824
25.1298
-0.382954
0.128756
25.1321
-0.380528
0.129477
25.133
-0.378357
0.130043
25.1333
-0.377836
0.130516
25.1325
-0.376957
0.130935
25.1318
-0.377076
0.131331
25.1304
-0.376851
0.131713
25.1291
-0.377005
0.132084
25.1275
-0.377304
0.132395
25.126
-0.37801
0.132778
25.1244
-0.378452
0.133048
25.123
-0.379733
0.133311
25.1224
-0.381462
0.133436
25.1226
-0.383522
0.133498
25.1235
-0.386071
0.13339
-0.388928
0.132978
24.9957
0.00806051
0.00126408
24.989
0.0182776
0.00255522
24.9773
0.0305333
0.00400893
24.9604
0.0434995
0.00593618
24.9359
0.05928
0.00837456
24.9014
0.0784833
0.0116229
24.8557
0.100858
0.016027
24.7974
0.126116
0.021894
24.7308
0.142018
0.0298305
6.1414
0.036301
0.0404979
0.0535781
0.0377957
0.0540704
6.16353
6.14069
6.1617
6.12384
0.0166879
0.00590556
-6.11075
6.09863
-0.0345119
0.00774078
-6.10254
6.12407
-0.0422348
0.00965894
-6.11625
6.14311
-0.220401
0.0116813
-6.1617
6.17586
-0.155873
0.0132235
-6.18908
6.19977
-0.142588
0.0141628
-6.21122
6.22572
-0.143403
0.0148261
-6.23799
6.24556
-0.139642
0.0153431
-6.25178
6.2574
-0.134503
0.015744
-6.26219
6.26654
-0.129632
0.0160857
25.1112
-0.142721
0.134824
-0.143315
-0.141516
-0.143407
-6.27039
-6.27523
-6.27085
-6.27542
25.1176
-0.546168
0.136834
25.1198
-0.530083
0.137196
25.1214
-0.524874
0.137286
25.1206
-0.519661
0.137545
25.1178
-0.515612
0.137857
25.1146
-0.513313
0.138206
25.1101
-0.511959
0.138626
25.1047
-0.510732
0.139133
25.0986
-0.510726
0.139723
25.0922
-0.510809
0.140373
25.0853
-0.511105
0.141051
25.0778
-0.511502
0.141676
25.0702
-0.512772
0.142363
25.0626
-0.513707
0.142862
25.0548
-0.515204
0.143267
25.0472
-0.517328
0.14341
25.0402
-0.519729
0.14328
25.0348
-0.523571
0.142832
-0.526885
0.141858
24.9973
0.00854233
0.00110416
24.9914
0.0220106
0.00223507
24.9816
0.0368489
0.00350383
24.9661
0.0538391
0.00520617
24.9432
0.0749515
0.00736474
24.9096
0.101899
0.0102588
24.8595
0.136974
0.0141885
24.7849
0.181202
0.0196137
6.17101
0.230794
0.0270214
6.16367
6.17088
6.16369
6.15489
0.0483994
0.00402897
6.12953
0.0056299
-6.15747
0.0200381
0.0116463
0.011513
0.0200889
-0.0409709
-6.07674
6.0426
0.0076247
-0.00227008
0.00393415
0.00365957
-0.00219216
0.0233737
-6.04226
6.06063
0.00995156
0.0290449
-0.040337
-0.0404735
-0.0192662
0.0426679
-6.11301
6.13815
0.0127852
-0.0519655
-0.0667357
-0.104614
-0.0524461
0.237788
-6.17039
6.18213
0.0146198
-0.0506131
-0.05457
-0.053806
-0.0510863
0.183698
-6.19365
6.20701
0.0154968
-0.05105
-0.050341
-0.0501923
-0.0511808
0.173903
-6.22067
6.23272
0.0160341
-0.0493482
-0.0493755
-0.0492095
-0.0495634
0.169402
-6.24273
6.25046
0.0164591
-0.0467733
-0.0468445
-0.0465703
-0.0470767
0.163047
-6.25739
6.26254
0.0168182
-0.0442547
-0.0446707
-0.0443391
-0.0445989
0.15588
-6.26715
6.26977
0.0170863
-0.0419739
-0.0426368
-0.0422881
-0.0423204
0.149502
-6.27331
6.27528
-0.161977
0.017288
25.0592
-0.654993
0.141331
-6.27532
-6.26985
-6.2763
-6.27028
25.0333
-0.643264
0.13909
25.0054
-0.63239
0.135362
24.9771
-0.623391
0.132021
24.9498
-0.617609
0.129295
24.9232
-0.613954
0.12723
24.8972
-0.611724
0.125825
24.8722
-0.610791
0.125021
24.8475
-0.610697
0.124699
24.8234
-0.611449
0.12473
24.8001
-0.612763
0.124969
24.7776
-0.614303
0.125246
24.7555
-0.616214
0.125537
24.7347
-0.618428
0.125607
24.7148
-0.62075
0.125391
24.6963
-0.623522
0.124746
24.6798
-0.626807
0.123562
24.6657
-0.631276
0.121778
-0.637972
0.119196
24.9999
0.00710223
0.000906583
24.9965
0.023572
0.00184459
24.9889
0.0415934
0.00289583
24.977
0.0614998
0.0042364
24.9593
0.0867627
0.0060011
24.932
0.120948
0.00831588
24.8885
0.169106
0.0114048
24.8156
0.238498
0.0157048
6.1702
0.345225
0.0214836
6.16976
6.17018
6.16961
-0.0643928
6.14447
0.0869146
0.00320407
-0.0193987
-1.52742
1.52226
0.0239597
0.000599392
-0.0191186
-1.50407
1.49199
0.0304605
0.000737827
-1.46873
0.0524864
1.47871
-0.0635968
0.00112211
-1.53017
0.0846195
1.53876
-0.0946678
0.0014545
-1.53672
0.0617199
-0.0660862
0.00234142
1.53874
-1.54769
0.059859
-0.0646132
0.0023068
1.55014
0.0575786
-1.55571
1.55716
-0.0613209
0.00229634
0.0536988
-1.56017
1.56077
-0.0566835
0.00238989
0.0508183
-1.56156
1.56169
-0.0534801
0.00253557
0.0480412
-1.56114
1.56077
-0.0503195
0.00264063
-1.55479
0.176462
6.16112
-0.168374
0.0176356
-1.5375
-1.55564
-1.53892
23.7993
-0.75619
0.0715793
-6.09967
-5.79039
-6.09752
-5.7821
23.8192
-0.731834
0.0686773
23.8369
-0.715779
0.065683
23.8543
-0.703574
0.0627669
23.8709
-0.694521
0.0602951
23.8865
-0.687782
0.0582258
23.9012
-0.68287
0.0564483
23.915
-0.679407
0.0548554
23.9281
-0.677146
0.0533549
23.9406
-0.675832
0.0518771
23.9527
-0.675236
0.050373
23.9649
-0.675318
0.0487877
23.9773
-0.675828
0.0471649
23.9901
-0.676658
0.045433
24.0038
-0.677965
0.0435772
24.0182
-0.679508
0.041553
24.0335
-0.681347
0.0392748
24.049
-0.683449
0.0366206
-0.68529
0.0335026
25.003
0.0032309
0.000702293
25.0035
0.0217076
0.0013948
25.0005
0.0423895
0.00218757
24.9947
0.0642149
0.00312568
24.9857
0.0914127
0.0043306
24.9719
0.128869
0.00589296
24.9518
0.181344
0.00783134
24.9201
0.259895
0.0103154
6.21249
0.386307
0.0132715
6.22059
6.21224
6.22046
-0.105375
6.19691
0.119053
0.00190269
-0.0391217
-1.54175
1.53556
0.0449871
0.000322055
-0.0816897
-1.50599
1.48746
0.0999972
0.000220348
0.00445492
-0.0747231
0.0749195
-0.00467517
2.37857e-05
-0.0214056
0.000450913
0.0209166
2.84629e-06
3.5328e-05
-0.227296
0.0146349
-0.0255195
0.000914735
0.237266
-1.18261
0.0589607
-0.07902
0.000470278
1.2022
0.0534081
-1.24734
1.25832
-0.062625
-0.00176396
0.0534399
-1.29256
1.30379
-0.0619855
-0.00268452
0.0522103
-1.33255
1.34116
-0.0578713
-0.00294873
0.051348
-1.36251
1.36974
-0.0557417
-0.00283269
-1.40492
0.201246
5.82184
-0.217659
-0.0134578
-1.49704
-1.39351
-1.4965
24.1052
-0.673257
-0.106904
-5.87231
-6.17238
-5.86621
-6.17036
24.1227
-0.64624
-0.103026
24.1393
-0.633418
-0.0989851
24.1564
-0.624574
-0.0961331
24.174
-0.617589
-0.0945375
24.1926
-0.612431
-0.0939358
24.2127
-0.608754
-0.0941632
24.2342
-0.606039
-0.094924
24.2572
-0.604079
-0.0960399
24.2814
-0.602671
-0.0973077
24.3064
-0.6017
-0.0985781
24.3319
-0.601208
-0.0996443
24.3577
-0.601098
-0.10049
24.3834
-0.601349
-0.100962
24.4084
-0.601889
-0.101113
24.4328
-0.602902
-0.101006
24.4562
-0.604004
-0.100715
24.4779
-0.604791
-0.100409
-0.604004
-0.100129
25.0047
-0.00159443
0.0004583
25.0098
0.0156328
0.000929321
25.0146
0.0361903
0.00142373
25.0183
0.0584546
0.00197988
25.02
0.0871396
0.00257714
25.0248
0.120769
0.00327492
25.0365
0.165607
0.00392898
25.062
0.229972
0.0043601
6.27363
0.331184
0.00423433
6.28141
6.27404
6.28378
-0.111234
6.28124
0.103163
0.000458769
-0.0445098
-1.57768
1.57934
0.0428236
2.60877e-05
-0.0841824
-1.59775
1.61272
-0.000229051
0.0694444
-0.0257941
-1.71312
1.7523
-0.00210381
0.0565208
-0.0208972
-0.0259052
-0.020996
0.100541
-1.71323
1.6837
-0.00155963
-0.0694483
0.103232
-1.60999
-0.00211218
1.59947
-0.0905996
0.0793003
-1.585
-0.0022073
1.58205
-0.074145
0.0580812
-1.5773
1.57632
-0.0548154
-0.00229236
0.0585536
-1.57447
1.57264
-0.0543967
-0.00232961
0.0526112
-1.57219
1.57152
-0.0496302
-0.00231852
0.0486829
-1.57055
1.57004
-0.0459211
-0.00225323
-1.56767
0.17912
6.26526
-0.158516
-0.0162937
-1.56723
-1.56737
-1.5673
25.0718
-0.540517
-0.126701
-6.26893
-6.26908
-6.27042
-6.26936
25.0725
-0.522023
-0.124953
25.0696
-0.507852
-0.122654
25.066
-0.500072
-0.120881
25.0629
-0.49469
-0.119803
25.0606
-0.490767
-0.119301
25.0589
-0.487714
-0.119367
25.0577
-0.484978
-0.119822
25.0573
-0.48313
-0.120593
25.0575
-0.481266
-0.121568
25.0579
-0.479452
-0.122706
25.0588
-0.478351
-0.123772
25.0599
-0.4773
-0.12488
25.0607
-0.476259
-0.125854
25.0617
-0.476084
-0.126784
25.0624
-0.475991
-0.127673
25.063
-0.476039
-0.128542
25.0636
-0.475882
-0.12947
-0.475657
-0.130394
25.0056
-0.0064737
0.000227668
25.0138
0.00690123
0.00048285
25.0266
0.0227055
0.000701666
25.0376
0.0464903
0.000872369
25.0527
0.0710799
0.000944632
25.0758
0.0966923
0.00081621
25.1134
0.127584
0.000325154
25.1763
0.167921
-0.000972422
6.31986
0.230464
-0.00355938
6.31797
6.32421
6.31837
-0.088478
6.33587
0.0731987
-0.00074428
-0.0332143
6.4122
0.0881459
-0.00165485
-0.0344398
-0.0334397
-0.0341611
-6.36345
-0.0335625
6.5163
0.0766559
-0.0034962
-0.0263251
-0.0335976
-0.0264097
-6.46956
-0.00752094
-6.54731
6.51406
-0.00482671
-0.00644778
0.0149013
-0.00792083
0.0450896
0.0453476
-6.536
6.51432
-0.122641
-0.00964589
0.0390951
0.0360757
0.0334723
0.0550047
-6.44995
6.41243
-0.176679
-0.0121143
0.055525
0.0573912
0.0583844
0.0563199
-6.3726
6.34059
-0.174602
-0.0136449
0.0550259
0.0552798
0.0536242
0.0464726
-6.32264
6.3116
-0.156116
-0.0146463
0.0455141
0.0452532
0.0445721
0.0443565
-6.30307
6.29729
-0.15484
-0.0152375
0.0441027
0.0438221
0.0435841
0.041268
-6.2929
6.28754
-0.141843
-0.0155129
0.0407526
0.040668
0.0400352
0.0382867
-6.28327
6.27778
-0.129765
-0.0156002
0.0378085
0.037683
0.0370783
0.141379
-6.27615
6.27415
-0.123722
-0.0156531
25.0742
-0.402053
-0.127177
-6.27152
-6.27149
-6.2717
-6.27078
25.0653
-0.386783
-0.126311
25.0605
-0.377524
-0.125454
25.0569
-0.371613
-0.1249
25.0545
-0.367736
-0.124545
25.0529
-0.364785
-0.12432
25.052
-0.362629
-0.124204
25.052
-0.360814
-0.124171
25.0523
-0.359242
-0.124187
25.0531
-0.357819
-0.124222
25.0542
-0.356296
-0.124287
25.0556
-0.355413
-0.124306
25.0567
-0.354173
-0.124271
25.0584
-0.353706
-0.12427
25.0598
-0.353124
-0.124307
25.0608
-0.352567
-0.124398
25.062
-0.352658
-0.124617
25.0639
-0.352696
-0.125044
-0.35306
-0.125742
25.0062
-0.0112875
7.26821e-05
25.0158
-0.00284274
0.000123515
25.0243
0.0139725
9.68148e-05
25.0406
0.0302118
-2.62876e-05
25.0669
0.045065
-0.000403628
25.1
0.0645514
-0.00116448
25.1472
0.0826818
-0.00253801
25.2134
0.106458
-0.00498515
25.3221
0.130681
-0.00916757
25.4273
0.145177
-0.0159931
-0.0610173
-0.0568505
-0.0588986
-0.0578792
25.5764
0.133807
-0.0263858
-0.0609161
-0.0645364
-0.0627708
-0.0686745
25.7124
0.0570319
-0.0411453
-0.0426381
-0.0288539
-0.0472013
-0.0333695
25.5923
-0.154089
-0.0589127
0.0205359
0.123509
0.0183095
0.170504
25.5012
-0.235679
-0.077697
0.0827459
0.116451
0.097914
0.10708
25.4335
-0.246357
-0.0930947
0.0823805
0.147771
0.0307923
0.145928
25.3485
-0.349946
-0.104084
0.134555
0.137386
0.132646
0.134209
25.2651
-0.318918
-0.110835
0.128033
0.131514
0.125304
0.128187
25.1995
-0.328127
-0.114936
0.130732
0.127579
0.127027
0.12335
25.1566
-0.306451
-0.117414
0.120414
0.117209
0.116607
0.112645
25.1327
-0.287213
-0.118958
0.109694
0.109489
0.104674
0.106318
25.113
-0.272903
-0.119976
0.105079
0.104448
0.102155
0.100945
25.095
-0.263477
-0.120589
25.0839
-0.254831
-0.120864
25.0766
-0.248975
-0.121156
25.0711
-0.244605
-0.121553
25.0669
-0.241624
-0.121884
25.0642
-0.239854
-0.122213
25.0618
-0.237746
-0.122521
25.0604
-0.236626
-0.122795
25.0594
-0.235156
-0.123029
25.0591
-0.234278
-0.12321
25.0594
-0.233242
-0.12335
25.0594
-0.232018
-0.123458
25.0601
-0.231383
-0.123463
25.0603
-0.230377
-0.123534
25.0606
-0.229772
-0.123599
25.0612
-0.229532
-0.123726
25.062
-0.229413
-0.123965
25.0623
-0.228616
-0.124377
-0.228349
-0.125009
25.0064
-0.0157894
-6.58555e-05
25.0092
-0.0055715
-0.000133071
25.0166
0.00687834
-0.000323732
25.0357
0.0115796
-0.000642621
25.0608
0.0211178
-0.00130694
25.0899
0.0377702
-0.00248748
25.1376
0.0390893
-0.00440402
25.1988
0.0523866
-0.00744875
25.2781
0.0631705
-0.0122563
25.3745
0.0677146
-0.0193895
25.4824
0.0547418
-0.0294131
25.5641
0.0175752
-0.0427704
25.5432
-0.0753652
-0.0582744
25.5301
-0.149188
-0.0739204
25.4082
-0.0377474
-0.0872851
25.3264
-0.171053
-0.0974764
25.2768
-0.165452
-0.104139
25.2156
-0.158545
-0.108588
25.1709
-0.150327
-0.111404
25.1388
-0.141877
-0.113303
25.1151
-0.134497
-0.114665
25.0963
-0.129156
-0.115591
25.0828
-0.124906
-0.116363
25.0728
-0.122014
-0.116996
25.0657
-0.11986
-0.117597
25.0606
-0.118529
-0.118026
25.0565
-0.117334
-0.118405
25.0541
-0.116608
-0.118706
25.0526
-0.116247
-0.118848
25.0518
-0.115448
-0.118899
25.0515
-0.115187
-0.118842
25.0515
-0.114462
-0.118698
25.0521
-0.114252
-0.118445
25.0525
-0.113639
-0.118157
25.0535
-0.113473
-0.117874
25.0543
-0.112915
-0.117601
25.0551
-0.112933
-0.117386
25.0557
-0.11279
-0.117293
25.057
-0.112543
-0.117398
-0.11335
-0.117802
24.9867
-0.000123167
24.9813
-0.000216602
24.9885
-0.000493127
25.0008
-0.00084237
25.0234
-0.00166333
25.0639
-0.00296923
25.1077
-0.00506107
25.168
-0.00833882
25.2439
-0.0133404
25.3314
-0.0204188
25.4154
-0.0299561
25.4744
-0.0421101
25.4541
-0.0558685
25.3739
-0.0697002
25.4174
-0.0818512
25.3375
-0.0917083
25.2701
-0.0984026
25.2141
-0.10278
25.1694
-0.105684
25.1351
-0.107707
25.1098
-0.109223
25.0911
-0.110368
25.0774
-0.111295
25.0675
-0.112039
25.0604
-0.112769
25.0552
-0.113364
25.0518
-0.113875
25.0495
-0.114339
25.0479
-0.114572
25.0471
-0.114723
25.0467
-0.114776
25.0469
-0.114677
25.0472
-0.114465
25.0477
-0.114217
25.0483
-0.114005
25.0491
-0.113785
25.0498
-0.113608
25.0506
-0.113542
25.0517
-0.11367
-0.114108
24.9959
0.00114476
0.00281991
24.9895
0.00387432
0.00573802
24.9791
0.00647547
0.00909519
24.9635
0.00971981
0.0132072
24.9426
0.0127689
0.0184264
24.9137
0.0178161
0.0251985
24.8721
0.0265256
0.0339253
24.8148
0.0370384
0.0450225
24.7591
0.0292488
0.0587776
24.7223
0.00229831
0.0754578
24.6964
-0.0177875
0.0943216
24.6331
0.0095004
0.114739
24.6613
-0.0921748
0.135262
24.7795
-0.192031
0.154506
24.8133
-0.116014
0.170675
24.8389
-0.11434
0.183148
24.8633
-0.118179
0.192425
24.8831
-0.11744
0.199498
24.8997
-0.11731
0.205019
24.9264
-0.129533
0.209474
24.9526
-0.130938
0.213049
24.9726
-0.126041
0.216124
24.9881
-0.122675
0.218851
25.0007
-0.12099
0.221318
25.011
-0.119723
0.223566
25.02
-0.119241
0.22559
25.0276
-0.118682
0.227369
25.034
-0.118255
0.228875
25.0397
-0.118128
0.230128
25.0447
-0.117999
0.231139
25.049
-0.117578
0.231893
25.0525
-0.11711
0.232414
25.0559
-0.117118
0.23271
25.0592
-0.11711
0.232894
25.0621
-0.116636
0.232901
25.0651
-0.116807
0.232863
25.0683
-0.11686
0.232633
25.0719
-0.117182
0.232395
25.0766
-0.11799
0.231955
-0.118905
0.230784
24.996
0.00236375
0.00274832
24.9896
0.00779876
0.00559352
24.9786
0.0135809
0.00887982
24.963
0.0195436
0.0129309
24.9416
0.0261167
0.0180994
24.9144
0.0338465
0.0248531
24.8817
0.0440786
0.0336316
24.8393
0.0588922
0.0449647
24.7765
0.0646359
0.0593314
24.7005
0.04218
0.0770857
24.6567
-0.0202842
0.0978041
24.5938
0.0140169
0.120754
24.6287
-0.196672
0.143916
24.7614
-0.405192
0.165475
24.8435
-0.287388
0.182991
24.913
-0.279945
0.196179
24.9645
-0.271164
0.205945
25.0055
-0.263844
0.213268
25.0509
-0.271148
0.218987
25.0829
-0.272171
0.223442
25.1013
-0.26153
0.22696
25.1139
-0.252136
0.229892
25.1219
-0.245195
0.232486
25.1276
-0.242292
0.234832
25.132
-0.240776
0.236973
25.1348
-0.239581
0.238902
25.1363
-0.238788
0.240625
25.1378
-0.239043
0.242131
25.1386
-0.238909
0.243413
25.1387
-0.238737
0.24446
25.1389
-0.238713
0.245269
25.1391
-0.23857
0.245845
25.1387
-0.238094
0.246258
25.1382
-0.238081
0.24648
25.1383
-0.238152
0.246566
25.1382
-0.237924
0.246534
25.1387
-0.238537
0.246385
25.1402
-0.239601
0.246124
25.1422
-0.240667
0.245715
-0.242673
0.244534
24.996
0.00367734
0.00260329
24.9897
0.0117222
0.00530492
24.9788
0.020723
0.00844364
24.9626
0.030205
0.0123444
24.9401
0.0408274
0.0173746
24.9104
0.0525642
0.0240316
24.8726
0.0667618
0.0328604
24.8264
0.0844478
0.0445528
24.7609
0.101785
0.0599041
24.6663
0.0986617
0.0796146
24.5877
0.00597982
0.103872
-0.0036342
0.00690526
-0.00127426
24.7198
-0.0365489
0.131248
-0.0570653
-0.0342756
-0.0542796
24.5772
0.0232557
0.15901
-0.0934036
0.0266507
-0.0894494
24.7403
-0.212595
0.184718
-0.122092
-0.208273
-0.117242
24.8324
-0.126544
0.203678
-0.119094
-0.121679
-0.11369
24.8937
-0.115828
0.217076
-0.114222
-0.110934
-0.108674
24.9481
-0.112907
0.22681
-0.112197
-0.107692
-0.106626
25.0135
-0.115064
0.234102
-0.113924
-0.109746
-0.108367
25.056
-0.111648
0.239776
-0.110444
-0.10647
-0.105772
25.0823
-0.108334
0.244091
-0.106859
-0.103891
-0.102055
25.101
-0.403857
0.247133
25.1135
-0.389145
0.249731
25.1212
-0.378303
0.252099
25.1263
-0.374577
0.254964
25.1297
-0.372809
0.257354
25.1316
-0.371698
0.259671
25.1327
-0.37103
0.261178
25.1325
-0.371046
0.262645
25.1319
-0.371114
0.263815
25.1315
-0.371779
0.264695
25.1301
-0.37091
0.265289
25.1288
-0.370774
0.265621
25.1279
-0.370317
0.265481
25.1264
-0.369374
0.265648
25.1247
-0.368848
0.265399
25.1236
-0.368503
0.265025
25.1227
-0.368783
0.264525
25.1224
-0.369698
0.263885
25.1235
-0.371423
0.263105
-0.373799
0.261591
24.9969
0.00472995
0.00238132
24.9908
0.0156292
0.00486338
24.98
0.0279706
0.00775961
24.964
0.0411254
0.0113892
24.9412
0.0562676
0.0161266
24.9083
0.0750756
0.022483
24.8636
0.0968664
0.0311356
24.8058
0.121934
0.0429315
24.7384
0.140646
0.0590759
6.14322
0.0377215
0.0810755
0.0533754
0.0384438
0.054223
6.16334
6.14363
6.16314
-0.0117138
6.12597
0.0172177
0.0177884
-0.0154861
-6.11379
6.10173
-0.0324672
0.0234855
-0.0194213
-6.10544
6.0981
0.0205597
0.0294464
-0.0234208
-6.11328
6.14543
-0.256762
0.0354276
-0.0264416
-6.16341
6.17746
-0.154007
0.0398766
-0.02838
-6.19066
6.20161
-0.141091
0.0427067
-0.0297006
-6.21277
6.22725
-0.142415
0.0447114
-0.0307021
-6.24031
6.24773
-0.138098
0.0462618
-0.0315075
-6.25388
6.25941
-0.133192
0.0474739
-0.0321711
-6.2635
6.26789
-0.12908
0.0484849
25.1163
-0.141926
0.273818
-0.142307
-0.140408
-0.138211
-6.27219
-6.27634
-6.2719
-6.27616
25.1224
-0.533981
0.275455
25.1243
-0.520802
0.277731
25.1248
-0.51929
0.28145
25.123
-0.517977
0.284487
25.119
-0.517161
0.287316
25.1145
-0.517518
0.289126
25.1092
-0.517786
0.290702
25.1032
-0.517796
0.291808
25.0965
-0.517822
0.292465
25.09
-0.516745
0.292695
25.0832
-0.51553
0.292539
25.0763
-0.513429
0.291767
25.0695
-0.511426
0.291231
25.0626
-0.50927
0.290109
25.0561
-0.507605
0.288881
25.0494
-0.505993
0.287336
25.0433
-0.50582
0.28554
25.0387
-0.507462
0.283402
-0.509477
0.280319
24.9985
0.00426963
0.00207936
24.9935
0.0187342
0.00425979
24.9841
0.0342659
0.00680496
24.9695
0.0511362
0.0100084
24.9474
0.071799
0.0142192
24.9151
0.0982366
0.0196673
24.8662
0.132566
0.0278056
24.7932
0.176197
0.0387827
6.17355
0.226113
0.054385
6.16629
6.17429
6.16666
-0.00800297
6.15836
0.0487423
0.0121976
-0.0112654
6.13269
0.0172326
-6.16138
0.0201045
0.0112746
0.0200969
0.0111884
-0.0399439
-0.0153753
-6.07962
6.04615
0.0236651
-0.00205427
0.00337714
-0.00233488
0.00361922
0.0224789
-0.0201954
-6.04472
6.05855
0.0310616
0.0519965
-0.0406892
0.0514578
-0.0402655
-0.0474469
-0.0253766
-6.09896
6.13979
0.0385095
-0.0511222
-0.129234
-0.0517818
-0.128674
0.306601
-0.0284914
-6.16998
6.1808
0.0427005
-0.049846
-0.0534136
-0.0504152
-0.0528026
0.18135
-0.0301195
-6.19405
6.20829
0.0447723
-0.0506168
-0.050272
-0.0510361
-0.0498484
0.172853
-0.0311769
-6.22233
6.23451
0.0461738
-0.0487114
-0.0490593
-0.0490194
-0.0487653
0.168277
-0.0320935
-6.24447
6.25203
0.0473703
-0.0458048
-0.0461032
-0.0462131
-0.0459249
0.161073
-0.0329484
-6.25894
6.26378
0.0485153
-0.0435908
-0.0437445
-0.0436248
-0.0436897
0.154144
-0.033704
-6.26843
6.27111
0.0496327
-0.0417342
-0.041755
-0.0414396
-0.0417922
0.148047
-6.27414
-0.0344645
6.27689
-0.161278
0.0510365
25.0733
-0.633114
0.27728
-6.27929
-6.27404
-6.27999
-6.27687
25.0435
-0.630977
0.279017
25.0099
-0.631335
0.280892
24.9754
-0.6327
0.281248
24.9422
-0.635506
0.280834
24.9102
-0.638267
0.279995
24.8802
-0.640124
0.278108
24.8524
-0.640943
0.276014
24.8262
-0.64048
0.273512
24.8024
-0.638801
0.270632
24.7806
-0.636022
0.267182
24.7608
-0.63225
0.263959
24.7423
-0.627665
0.260191
24.7255
-0.62306
0.256242
24.7096
-0.618476
0.252126
24.6953
-0.614625
0.247748
24.6821
-0.612121
0.242986
24.6707
-0.611952
0.237711
-0.615427
0.23149
25.0021
0.00069393
0.00175145
24.9999
0.0193813
0.0035231
24.9922
0.0393445
0.00560424
24.9801
0.059361
0.00821247
24.9626
0.0838977
0.0116199
24.9365
0.117142
0.0157073
24.8939
0.164224
0.0225303
24.8221
0.232595
0.0313189
6.17213
0.338592
0.0440802
6.17127
6.17241
6.1714
-0.00632804
-0.0636866
6.14652
0.0857701
0.00986104
-0.00205507
-0.0190697
-1.52781
1.52255
0.023655
0.00272808
-0.00298878
-0.0182446
-1.50416
1.49169
0.0298345
0.00383641
-0.00436341
-1.46969
0.0531093
1.47987
-0.0645554
0.00554422
-0.00610486
-1.52946
0.153741
1.54095
-0.166808
0.00760616
-0.00694848
-1.53701
0.0593211
-0.0623652
1.53866
0.00830382
-1.54762
-0.00750343
0.0586041
-0.0623287
0.00842257
1.55042
-0.00794089
0.0556877
-1.55644
1.55802
-0.0578262
0.00849117
-0.00846274
0.0511277
-1.56146
1.56218
-0.052342
0.00895185
-0.00896155
0.0480488
-1.56334
1.56356
-0.0489788
0.00966149
-0.00927618
0.0454679
-1.56327
1.56292
-0.0461715
0.0103278
-1.55675
-0.034997
0.172125
6.16929
-0.156216
0.0448852
-1.54137
-1.55669
-1.54029
23.846
-0.723496
0.140518
-6.10807
-5.78779
-6.11954
-5.80914
23.8503
-0.712769
0.146071
23.853
-0.714815
0.146533
23.8564
-0.717079
0.143699
23.861
-0.719191
0.139383
23.8666
-0.720295
0.134621
23.8738
-0.72007
0.129175
23.8822
-0.718467
0.124029
23.8916
-0.715607
0.119094
23.9018
-0.711584
0.114413
23.913
-0.706587
0.109763
23.9246
-0.700968
0.105842
23.9372
-0.694962
0.101889
23.9505
-0.688968
0.0981133
23.9646
-0.68338
0.0943793
23.9795
-0.678582
0.0905158
23.9954
-0.674911
0.0862235
24.0117
-0.672593
0.0809901
-0.671525
0.0737846
25.0089
-0.000502415
0.00131669
25.0096
0.0174948
0.00267317
25.0061
0.0408554
0.00421586
24.9992
0.063354
0.00609238
24.989
0.0899519
0.00846097
24.9752
0.125855
0.0110279
24.9554
0.176398
0.0155331
24.9244
0.253207
0.0207368
6.21301
0.379074
0.02781
6.22138
6.21313
6.22185
-0.00379843
-0.103977
6.19735
0.117462
0.00597235
-0.00116149
-0.0389469
-1.54165
1.53546
0.0447407
0.00154917
-0.0015663
-0.0809003
-1.5052
1.48665
0.0989959
0.00200165
-0.000244801
0.00468761
-0.0749445
0.0752071
-0.00496365
0.000257966
0.00505865
-0.194068
0.00982535
-0.0208552
-0.00568152
0.205722
-1.12717
0.0121593
0.0504684
-0.0723114
-0.00635376
1.14321
0.0121244
0.0392494
-1.18007
1.18881
-0.0508335
-0.00928424
0.0119137
0.0387997
-1.22061
1.23259
-0.0509933
-0.0117101
0.0112315
0.0384736
-1.2665
1.27764
-0.0481332
-0.0127124
0.00998006
0.0400108
-1.30792
1.31874
-0.0484641
-0.0123462
-1.37236
0.0316315
0.181094
5.77453
-0.212689
-0.0418864
-1.48598
-1.38349
-1.49084
24.0158
-0.66725
-0.222889
-5.83602
-6.15982
-5.79959
-6.16057
24.0674
-0.645359
-0.222066
24.1157
-0.641968
-0.220077
24.1607
-0.640666
-0.21751
24.2008
-0.639408
-0.214484
24.2359
-0.638136
-0.211208
24.2662
-0.636679
-0.207837
24.292
-0.634679
-0.204436
24.3134
-0.632117
-0.201019
24.3311
-0.62901
-0.197566
24.3457
-0.625683
-0.194095
24.3582
-0.622449
-0.19059
24.3693
-0.61943
-0.187184
24.3798
-0.616535
-0.183896
24.3904
-0.61413
-0.180876
24.4014
-0.612356
-0.1783
24.4135
-0.611248
-0.176492
24.4266
-0.610277
-0.175829
-0.608094
-0.176927
25.0081
-0.00539191
0.000887734
25.015
0.00978382
0.00179273
25.0214
0.0330779
0.00276308
25.025
0.0578544
0.00385215
25.0239
0.0883837
0.00508456
25.028
0.118788
0.00619425
25.0395
0.160789
0.00783151
25.0673
0.220686
0.00894691
6.27527
0.310581
0.00929081
6.28745
6.27686
6.29096
-0.000986024
-0.109156
6.28268
0.101162
0.00155698
-0.000145138
-0.0442559
-1.57763
1.57933
0.0425133
0.000188709
0.000294372
-0.0817751
-1.59963
1.616
0.0654752
-0.000344615
0.00110233
-0.0265618
-1.71172
1.75002
0.0596897
-0.000715868
-0.0220105
-0.0274703
-0.022258
0.00420363
0.110176
-1.71069
1.67986
-0.0786873
-0.00478493
0.10543
-1.61038
0.00558254
1.59944
-0.0933804
-0.00664354
0.00670736
0.0748473
-1.5843
-0.00784439
1.58198
-0.0713795
0.00743551
0.0540318
-1.57822
1.57657
-0.0512273
-0.0085957
0.00782546
0.0552585
-1.57541
1.5739
-0.0525307
-0.00904321
0.0080252
0.0494071
-1.57292
1.57223
-0.0474183
-0.00933019
0.00801546
0.0460412
-1.56936
1.56965
-0.044912
-0.00943308
-1.56964
0.0317647
0.177238
6.27249
-0.156097
-0.0458058
-1.56983
-1.56967
-1.57044
25.0795
-0.522318
-0.25444
-6.27482
-6.2691
-6.27872
-6.27391
25.0798
-0.515933
-0.254645
25.0774
-0.507109
-0.255093
25.0748
-0.502769
-0.256166
25.0723
-0.499283
-0.257459
25.0708
-0.497112
-0.258774
25.0697
-0.494918
-0.260052
25.0692
-0.492718
-0.261227
25.0691
-0.490382
-0.262236
25.0692
-0.487664
-0.263025
25.0695
-0.485096
-0.263574
25.0703
-0.482881
-0.264104
25.0707
-0.480813
-0.263948
25.0707
-0.478504
-0.263859
25.0709
-0.477399
-0.263696
25.0708
-0.476283
-0.263673
25.0705
-0.475503
-0.263997
25.0701
-0.474456
-0.264867
-0.473573
-0.266167
25.0067
-0.00964784
0.000491371
25.0164
-0.000481114
0.000966912
25.0301
0.0185722
0.00139107
25.0381
0.0488961
0.00173453
25.0552
0.0700679
0.0018941
25.0782
0.0946483
0.00167514
25.1156
0.122636
0.000721667
25.1803
0.156189
-0.00163834
6.32868
0.197991
-0.00661408
6.31757
6.33303
6.31624
-0.0860249
0.00138506
6.34684
0.0685922
-0.00214316
-0.0330849
0.00333451
6.41991
0.0890026
-0.00484929
-0.0313321
-0.0333679
-0.0305869
-6.37903
-0.0300833
0.00701214
6.49217
0.0838156
-0.0101538
-0.0294309
-0.0292892
-0.031818
-6.45217
-0.00994578
0.0124364
-6.54106
6.50066
-0.0562671
-0.0187514
0.0624964
-0.0112472
0.0618736
0.0349561
0.0195727
-6.49378
6.47549
-0.143685
-0.0289075
0.051572
0.0341671
0.0507716
0.0583234
-6.45204
0.0252412
6.40821
-0.183081
-0.0370327
0.0575083
0.0618489
0.0610462
0.0561028
0.0285811
-6.36788
6.33978
-0.176912
-0.0420211
0.0540415
0.055159
0.0531271
0.0455297
0.0305702
-6.32595
6.31896
-0.157561
-0.0450401
0.0447475
0.0447275
0.0440494
0.0439772
0.031673
-6.3149
6.30718
-0.152486
-0.0467486
0.0444321
0.043245
0.0437064
0.0431069
0.0321118
-6.29863
6.28978
-0.141938
-0.0475834
0.0406507
0.0424989
0.0400719
0.0381992
0.0322183
-6.28237
6.27456
-0.125187
-0.0478972
0.0352936
0.0387046
0.0365264
0.136657
-6.27297
0.0323663
6.27313
-0.121173
-0.0479805
25.076
-0.382705
-0.260094
-6.27143
-6.26981
-6.27173
-6.26956
25.0687
-0.375595
-0.259301
25.0644
-0.369213
-0.259047
25.061
-0.364845
-0.259352
25.0589
-0.362118
-0.259637
25.0572
-0.359897
-0.259783
25.0564
-0.358516
-0.259773
25.0563
-0.357262
-0.259594
25.0566
-0.355527
-0.259246
25.0577
-0.354258
-0.258744
25.0589