/*--------------------------------*- C++ -*----------------------------------*\
| =========                 |                                                 |
| \\      /  F ield         | OpenFOAM: The Open Source CFD Toolbox           |
|  \\    /   O peration     | Version:  2306                                  |
|   \\  /    A nd           | Website:  www.openfoam.com                      |
|    \\/     M anipulation  |                                                 |
\*---------------------------------------------------------------------------*/
FoamFile
{
    version     2.0;
    format      ascii;
    arch        "LSB;label=32;scalar=64";
    class       volVectorField;
    location    "0.25";
    object      U;
}
// * * * * * * * * * * * * * * * * * * * * * * * * * * * * * * * * * * * * * //

dimensions      [0 1 -1 0 0 0 0];

internalField   nonuniform List<vector> 
111542
(
(99.9934 0.00510925 0.00299612)
(99.9713 0.0104565 0.00619334)
(99.9303 0.0160074 0.00971637)
(99.8692 0.0219037 0.0140344)
(99.7865 0.027874 0.0195341)
(99.68 0.0331225 0.0266671)
(99.5489 0.0357692 0.0356996)
(99.3952 0.0328344 0.0471227)
(99.2286 0.0196922 0.061429)
(99.0688 -0.010017 0.0786288)
(98.9491 -0.0618467 0.0982077)
(98.9096 -0.133367 0.119239)
(98.9765 -0.206419 0.140625)
(99.1404 -0.261463 0.160281)
(99.3573 -0.288182 0.176646)
(99.5797 -0.296371 0.189522)
(99.7814 -0.294802 0.199244)
(99.9545 -0.287864 0.206768)
(100.098 -0.278445 0.2128)
(100.213 -0.268758 0.217922)
(100.302 -0.26037 0.222198)
(100.369 -0.253645 0.225917)
(100.418 -0.248395 0.229418)
(100.453 -0.244968 0.232524)
(100.477 -0.243095 0.235294)
(100.495 -0.242202 0.237929)
(100.508 -0.242281 0.240182)
(100.516 -0.243084 0.242053)
(100.521 -0.244199 0.243688)
(100.524 -0.245414 0.24508)
(100.526 -0.246636 0.246194)
(100.527 -0.247872 0.246978)
(100.527 -0.248971 0.247601)
(100.527 -0.249946 0.248103)
(100.528 -0.250885 0.248478)
(100.53 -0.251907 0.248706)
(100.534 -0.253172 0.248708)
(100.54 -0.254636 0.248615)
(100.551 -0.256391 0.248444)
(100.571 -0.258692 0.248275)
(99.9936 0.0152366 0.00293442)
(99.9719 0.0311253 0.0059947)
(99.9314 0.0480168 0.00948021)
(99.8706 0.0662524 0.0137548)
(99.7871 0.0851958 0.0191949)
(99.6772 0.102712 0.0262398)
(99.5378 0.113828 0.0353427)
(99.3683 0.109697 0.047027)
(99.1748 0.0757119 0.0617769)
(98.9764 -0.00905639 0.0797728)
(98.8141 -0.161664 0.100763)
(98.7539 -0.375193 0.123174)
(98.8398 -0.596812 0.14652)
(99.0495 -0.75515 0.168212)
(99.3111 -0.832816 0.186013)
(99.5616 -0.860304 0.199508)
(99.7784 -0.859239 0.209553)
(99.9595 -0.841907 0.217293)
(100.106 -0.817109 0.223515)
(100.221 -0.79051 0.228655)
(100.308 -0.766194 0.232971)
(100.371 -0.746831 0.236794)
(100.417 -0.732653 0.240262)
(100.448 -0.723308 0.243303)
(100.471 -0.716708 0.24596)
(100.486 -0.71144 0.248334)
(100.497 -0.707644 0.25043)
(100.504 -0.705228 0.252273)
(100.507 -0.703691 0.253904)
(100.51 -0.702717 0.255343)
(100.51 -0.702191 0.256598)
(100.511 -0.70213 0.257688)
(100.51 -0.7024 0.258661)
(100.51 -0.703095 0.259537)
(100.51 -0.704432 0.260305)
(100.511 -0.706685 0.260936)
(100.515 -0.710161 0.261383)
(100.52 -0.714892 0.261633)
(100.53 -0.720989 0.261676)
(100.548 -0.728495 0.261619)
(99.994 0.0250324 0.00278103)
(99.9732 0.051229 0.00567357)
(99.9342 0.0798216 0.0090025)
(99.8747 0.111608 0.0131116)
(99.7908 0.146247 0.0183831)
(99.6761 0.181324 0.0252916)
(99.523 0.210435 0.034397)
(99.324 0.219862 0.0463534)
(99.0765 0.182935 0.0618718)
(98.7979 0.0513392 0.0815663)
(98.5479 -0.28322 0.105763)
(98.4383 -0.743779 0.133304)
(98.5635 -1.1575 0.159306)
(98.8681 -1.39075 0.183722)
(99.2104 -1.48348 0.203084)
(99.5085 -1.50964 0.216944)
(99.7531 -1.49285 0.226898)
(99.9492 -1.4542 0.234544)
(100.102 -1.40788 0.240729)
(100.217 -1.36086 0.2458)
(100.301 -1.31949 0.250062)
(100.359 -1.28353 0.253832)
(100.398 -1.26214 0.25714)
(100.426 -1.25374 0.259959)
(100.447 -1.25067 0.262315)
(100.461 -1.24919 0.264253)
(100.469 -1.24875 0.265846)
(100.473 -1.24912 0.267207)
(100.474 -1.24982 0.268464)
(100.473 -1.25056 0.269734)
(100.47 -1.25121 0.271103)
(100.466 -1.25184 0.27262)
(100.462 -1.25256 0.274297)
(100.457 -1.25361 0.276103)
(100.452 -1.25534 0.277952)
(100.448 -1.25819 0.279726)
(100.445 -1.26257 0.28127)
(100.445 -1.2688 0.282437)
(100.448 -1.27695 0.283129)
(100.459 -1.28653 0.283439)
(99.9946 0.0340642 0.00254346)
(99.9758 0.0700682 0.0051907)
(99.9402 0.11032 0.00825259)
(99.8847 0.156776 0.0120631)
(99.8036 0.210528 0.0170026)
(99.6876 0.270944 0.0235621)
(99.522 0.333666 0.0323761)
(99.2862 0.385994 0.0442395)
(98.9515 0.398098 0.0601535)
(98.4541 0.195759 0.0814077)
(98.1984 0.0160561 0.0881243)
(97.8559 -0.638987 0.103573)
(97.9256 -1.43611 0.117629)
(98.4042 -1.94184 0.130347)
(98.8996 -2.08555 0.142793)
(99.2857 -2.11588 0.150539)
(99.6005 -2.0812 0.154962)
(99.8451 -2.01187 0.157744)
(100.03 -1.93348 0.159747)
(100.17 -1.8604 0.161342)
(100.343 -1.91591 0.269354)
(100.383 -1.84488 0.275033)
(100.394 -1.79413 0.278106)
(100.398 -1.7638 0.279868)
(100.401 -1.74469 0.281412)
(100.4 -1.73327 0.282919)
(100.392 -1.72782 0.284378)
(100.379 -1.72655 0.285868)
(100.362 -1.72795 0.287513)
(100.342 -1.73102 0.289427)
(100.32 -1.73518 0.291677)
(100.295 -1.74009 0.294281)
(100.269 -1.74565 0.297185)
(100.241 -1.75193 0.300262)
(100.212 -1.75919 0.303316)
(100.182 -1.76783 0.306093)
(100.153 -1.77834 0.308293)
(100.126 -1.79124 0.309618)
(100.102 -1.80676 0.309834)
(100.078 -1.82389 0.308942)
(99.9956 0.0416307 0.00222116)
(99.9803 0.0861045 0.00453715)
(99.9508 0.137036 0.00721933)
(99.9038 0.198113 0.010568)
(99.8328 0.273016 0.0149318)
(99.7262 0.365328 0.0207659)
(99.5644 0.477695 0.0286898)
(99.3147 0.608598 0.0395052)
(98.872 0.744366 0.0542707)
(98.5287 0.750338 0.0595587)
(97.7184 0.35775 0.0727095)
(96.9217 -0.710259 0.0893642)
(97.0266 -2.35512 0.103648)
(98.1516 -2.946 0.117467)
(98.8606 -2.97125 0.135488)
(99.3146 -2.93338 0.14429)
(99.6734 -2.82463 0.147591)
(99.9257 -2.69644 0.149338)
(100.102 -2.57193 0.150462)
(100.219 -2.46449 0.150967)
(100.294 -2.39774 0.150963)
(100.216 -2.52102 0.293413)
(100.092 -2.49931 0.297319)
(99.9731 -2.46609 0.29695)
(99.8652 -2.43076 0.295202)
(99.7611 -2.40162 0.293047)
(99.6586 -2.37967 0.29084)
(99.5583 -2.36349 0.288894)
(99.4605 -2.35178 0.287467)
(99.3648 -2.34365 0.286708)
(99.2712 -2.33835 0.286659)
(99.1798 -2.33524 0.287253)
(99.0906 -2.33389 0.28831)
(99.0042 -2.33405 0.289544)
(98.921 -2.33574 0.29059)
(98.8416 -2.33916 0.291027)
(98.7668 -2.34477 0.290397)
(98.698 -2.35338 0.288266)
(98.6378 -2.36647 0.284278)
(98.5838 -2.38722 0.278297)
(99.997 0.0468384 0.00182024)
(99.9867 0.0973516 0.00371412)
(99.9666 0.156431 0.00589987)
(99.9339 0.229615 0.00861433)
(99.883 0.323659 0.0121235)
(99.8032 0.447774 0.0167711)
(99.6754 0.615493 0.0230214)
(99.4627 0.846947 0.0314535)
(99.0408 1.17327 0.0427597)
(98.631 1.33358 0.0471729)
(97.6763 1.47104 0.0450451)
(95.5748 0.691553 0.04069)
(94.4021 -3.45242 0.0540097)
(98.2062 -4.72529 0.051113)
(98.7054 -3.96047 0.0768361)
(99.2586 -3.89213 0.0660199)
(99.631 -3.69339 0.0679286)
(99.7968 -3.48675 0.0792865)
(99.8395 -3.30417 0.0952357)
(99.7849 -3.12031 0.109078)
(98.6665 -2.80193 0.155579)
(95.0456 -2.48492 0.180045)
(95.124 -2.52376 0.169792)
(95.221 -2.53053 0.165892)
(95.3053 -2.52601 0.165222)
(95.3784 -2.52296 0.165171)
(95.4463 -2.52401 0.16406)
(95.5107 -2.52884 0.161075)
(95.5714 -2.53693 0.155983)
(95.6285 -2.54777 0.148901)
(95.6825 -2.5607 0.140137)
(95.7344 -2.57507 0.130086)
(95.7854 -2.59028 0.119148)
(95.8365 -2.60589 0.107695)
(95.8889 -2.6216 0.0960404)
(95.9436 -2.63733 0.0844072)
(96.0014 -2.65323 0.0729152)
(96.0624 -2.66979 0.0615655)
(96.1258 -2.68826 0.0502701)
(96.2031 -2.71186 0.0391185)
(99.9988 0.0488087 0.00141281)
(99.9948 0.1018 0.00283946)
(99.9868 0.164718 0.00444013)
(99.9736 0.244365 0.00637302)
(99.9523 0.349695 0.00878375)
(99.9181 0.494231 0.0118351)
(99.8626 0.699977 0.0156947)
(99.7711 1.00548 0.0204567)
(99.5946 1.4841 0.0259837)
(99.3241 1.88387 0.0282487)
(98.5983 2.81772 0.0252891)
(95.4453 5.80097 0.0162103)
(77.1503 -4.3419 0.0251482)
(102.743 -10.2981 0.0207176)
(57.7096 -4.8058 0.0778598)
(75.5893 -4.47393 0.0921521)
(79.7295 -3.77111 -0.00739636)
(82.9706 -3.53012 -0.0867829)
(85.4457 -3.4116 -0.136577)
(87.3229 -3.35068 -0.148807)
(92.819 -3.72023 -0.126728)
(96.3028 -3.34058 -0.228122)
(96.3888 -3.20451 -0.22186)
(96.4863 -3.10409 -0.217171)
(96.564 -3.02879 -0.214675)
(96.6331 -2.96991 -0.214585)
(96.7048 -2.92306 -0.216677)
(96.7831 -2.88562 -0.220641)
(96.8679 -2.85558 -0.226167)
(96.9587 -2.83143 -0.232898)
(97.0545 -2.81209 -0.240409)
(97.1543 -2.79678 -0.248211)
(97.2568 -2.78493 -0.255785)
(97.3606 -2.77613 -0.26262)
(97.4645 -2.77004 -0.268272)
(97.567 -2.76636 -0.272413)
(97.6671 -2.76474 -0.274902)
(97.7636 -2.76462 -0.275782)
(97.8548 -2.7648 -0.275264)
(97.9571 -2.76205 -0.273434)
(100.001 0.0469609 0.000974443)
(100.004 0.0981188 0.00189839)
(100.009 0.159315 0.00288617)
(100.017 0.23747 0.00399075)
(100.03 0.341762 0.00521783)
(100.049 0.485837 0.00651982)
(100.082 0.691174 0.00773832)
(100.142 0.993678 0.00845943)
(100.283 1.45573 0.00775676)
(100.329 1.86754 0.00751289)
(100.597 2.85505 0.00343238)
(102.404 5.39374 -0.00699688)
(111.173 3.90263 -0.0726733)
(109.097 -6.74413 0.00772806)
(102.819 -6.81852 -0.054569)
(101.15 -5.03259 -0.0638754)
(100.695 -4.03726 -0.0678118)
(100.518 -3.48365 -0.0701497)
(100.433 -3.15506 -0.0703934)
(100.367 -2.95731 -0.0681882)
(100.275 -2.69796 -0.137281)
(100.299 -2.28244 -0.261621)
(100.279 -2.17744 -0.260696)
(100.263 -2.11808 -0.258129)
(100.251 -2.08643 -0.255717)
(100.24 -2.06814 -0.254117)
(100.23 -2.05732 -0.253415)
(100.222 -2.05145 -0.253602)
(100.218 -2.04881 -0.254656)
(100.216 -2.04812 -0.25652)
(100.216 -2.04862 -0.259106)
(100.218 -2.05001 -0.262301)
(100.221 -2.05224 -0.265968)
(100.226 -2.05542 -0.269949)
(100.23 -2.05967 -0.274077)
(100.235 -2.06504 -0.278196)
(100.238 -2.07141 -0.282197)
(100.241 -2.07827 -0.286013)
(100.244 -2.08432 -0.289608)
(100.249 -2.08656 -0.292802)
(100.003 0.0411879 0.000507577)
(100.012 0.0861309 0.00097021)
(100.03 0.139924 0.00139163)
(100.058 0.208504 0.00171443)
(100.102 0.299393 0.00182868)
(100.167 0.422789 0.00152187)
(100.27 0.592937 0.000392558)
(100.435 0.829445 -0.00228517)
(100.75 1.15697 -0.0078651)
(100.974 1.39803 -0.00992918)
(101.824 1.86001 -0.0173632)
(103.44 1.77398 -0.031786)
(105.236 -0.226781 -0.0512884)
(104.793 -2.81676 -0.0349953)
(103 -3.53844 -0.0564275)
(101.786 -3.32125 -0.0731104)
(101.158 -2.96621 -0.0823306)
(100.821 -2.6644 -0.0872004)
(100.626 -2.43836 -0.0899081)
(100.498 -2.27186 -0.0916062)
(100.406 -2.14148 -0.0932277)
(100.305 -1.86575 -0.250919)
(100.268 -1.83651 -0.250662)
(100.243 -1.81666 -0.249608)
(100.226 -1.80411 -0.248696)
(100.216 -1.79477 -0.248162)
(100.208 -1.78636 -0.248012)
(100.204 -1.77823 -0.248232)
(100.202 -1.77016 -0.248803)
(100.203 -1.76204 -0.249681)
(100.205 -1.75391 -0.250805)
(100.209 -1.74597 -0.252105)
(100.214 -1.73847 -0.253502)
(100.22 -1.73168 -0.254919)
(100.226 -1.72577 -0.256298)
(100.232 -1.72084 -0.25761)
(100.237 -1.71684 -0.258867)
(100.242 -1.71356 -0.26013)
(100.248 -1.71069 -0.261516)
(100.258 -1.70833 -0.263249)
(100.004 0.0319822 0.000145974)
(100.019 0.0668769 0.000246928)
(100.047 0.108511 0.000188133)
(100.091 0.161182 -0.000143862)
(100.157 0.229911 -0.000934761)
(100.255 0.320536 -0.00251684)
(100.4 0.439353 -0.00542388)
(100.617 0.590871 -0.0105107)
(100.951 0.771422 -0.0191756)
(101.437 0.857368 -0.033224)
(102.078 0.7631 -0.0544759)
(102.758 0.239164 -0.084004)
(103.122 -0.745935 -0.117782)
(102.882 -1.57394 -0.148667)
(102.246 -1.87758 -0.178802)
(101.62 -1.88049 -0.201742)
(101.175 -1.7923 -0.216265)
(100.886 -1.68578 -0.225094)
(100.693 -1.58599 -0.230707)
(100.556 -1.49937 -0.234392)
(100.461 -1.42596 -0.236895)
(100.396 -1.36234 -0.238727)
(100.35 -1.31223 -0.240109)
(100.317 -1.27222 -0.241354)
(100.292 -1.24136 -0.242582)
(100.274 -1.21788 -0.243798)
(100.26 -1.19967 -0.244991)
(100.25 -1.1852 -0.246143)
(100.243 -1.17344 -0.247226)
(100.238 -1.16366 -0.248213)
(100.236 -1.15538 -0.249094)
(100.235 -1.1483 -0.249868)
(100.236 -1.14234 -0.250549)
(100.238 -1.13743 -0.25116)
(100.239 -1.13354 -0.251742)
(100.241 -1.13068 -0.252346)
(100.243 -1.12879 -0.253041)
(100.245 -1.12774 -0.253917)
(100.247 -1.12747 -0.255099)
(100.248 -1.12811 -0.256781)
(100.005 0.0202334 -0.000133076)
(100.023 0.0422198 -0.000332701)
(100.058 0.0684409 -0.000743524)
(100.113 0.101205 -0.00152746)
(100.193 0.14338 -0.00295016)
(100.308 0.197363 -0.0053831)
(100.471 0.264617 -0.00939961)
(100.698 0.342664 -0.0157913)
(101.007 0.418652 -0.0256514)
(101.407 0.45348 -0.0402371)
(101.873 0.391357 -0.0606985)
(102.307 0.157496 -0.0875225)
(102.534 -0.258862 -0.118155)
(102.425 -0.684769 -0.147863)
(102.043 -0.926693 -0.174314)
(101.59 -0.985023 -0.194632)
(101.214 -0.955641 -0.208696)
(100.941 -0.901235 -0.217889)
(100.745 -0.845549 -0.224051)
(100.6 -0.79557 -0.228346)
(100.491 -0.754065 -0.231451)
(100.411 -0.723849 -0.233826)
(100.351 -0.704047 -0.235834)
(100.307 -0.691996 -0.237595)
(100.274 -0.685481 -0.239157)
(100.25 -0.682792 -0.240538)
(100.233 -0.682361 -0.241737)
(100.22 -0.683017 -0.242733)
(100.212 -0.684055 -0.243498)
(100.208 -0.685101 -0.244013)
(100.206 -0.685954 -0.244276)
(100.205 -0.686567 -0.244307)
(100.207 -0.686977 -0.244136)
(100.209 -0.687317 -0.243812)
(100.212 -0.687426 -0.243429)
(100.215 -0.687541 -0.24304)
(100.218 -0.68775 -0.242727)
(100.221 -0.68808 -0.242606)
(100.225 -0.688574 -0.242848)
(100.234 -0.689238 -0.243782)
(100.006 0.00692215 -0.000299834)
(100.026 0.0144092 -0.000611375)
(100.064 0.0233636 -0.00123383)
(100.123 0.0344143 -0.00219604)
(100.21 0.0485867 -0.00395638)
(100.333 0.0664264 -0.00682427)
(100.501 0.0879364 -0.0114136)
(100.727 0.111644 -0.0184017)
(101.017 0.132473 -0.0288598)
(101.367 0.137877 -0.0434928)
(101.742 0.108075 -0.0629454)
(102.066 0.0225437 -0.0871018)
(102.237 -0.115671 -0.114311)
(102.177 -0.259164 -0.14154)
(101.91 -0.350476 -0.165314)
(101.554 -0.378832 -0.184217)
(101.222 -0.372991 -0.198049)
(100.961 -0.357379 -0.20746)
(100.764 -0.341196 -0.213971)
(100.615 -0.326772 -0.218665)
(100.501 -0.314816 -0.222234)
(100.416 -0.305679 -0.225084)
(100.353 -0.298573 -0.22748)
(100.307 -0.29264 -0.229497)
(100.273 -0.287162 -0.231322)
(100.249 -0.281836 -0.23297)
(100.231 -0.27649 -0.234403)
(100.218 -0.271044 -0.235584)
(100.21 -0.26552 -0.236482)
(100.204 -0.259996 -0.23708)
(100.202 -0.254567 -0.237381)
(100.201 -0.249327 -0.237405)
(100.201 -0.24438 -0.237184)
(100.202 -0.23985 -0.23673)
(100.205 -0.235596 -0.236324)
(100.207 -0.231786 -0.235921)
(100.209 -0.228486 -0.235589)
(100.212 -0.225726 -0.235456)
(100.216 -0.22363 -0.235706)
(100.219 -0.222692 -0.236706)
(99.9938 0.00504813 0.00865248)
(99.9728 0.0102594 0.0178051)
(99.9336 0.0157751 0.0281503)
(99.8753 0.0216319 0.0408303)
(99.7962 0.0275467 0.0569307)
(99.6943 0.0327145 0.0776901)
(99.5686 0.0354367 0.10418)
(99.4215 0.0327633 0.137784)
(99.2621 0.0200606 0.179722)
(99.1093 -0.00888572 0.23016)
(98.9954 -0.0594099 0.288089)
(98.9597 -0.129542 0.350761)
(99.0268 -0.200307 0.4138)
(99.1869 -0.252992 0.47162)
(99.3972 -0.278208 0.519844)
(99.6117 -0.285691 0.557677)
(99.8051 -0.283729 0.58632)
(99.97 -0.276506 0.608224)
(100.106 -0.26684 0.625395)
(100.214 -0.25712 0.639338)
(100.296 -0.248601 0.650691)
(100.358 -0.241705 0.660282)
(100.403 -0.236439 0.668882)
(100.435 -0.23304 0.676451)
(100.459 -0.231246 0.683088)
(100.477 -0.230595 0.689037)
(100.491 -0.230815 0.694026)
(100.501 -0.231641 0.698106)
(100.508 -0.232767 0.701486)
(100.514 -0.233954 0.70417)
(100.518 -0.235056 0.706122)
(100.521 -0.236011 0.707312)
(100.523 -0.236795 0.707996)
(100.524 -0.237441 0.708281)
(100.526 -0.238032 0.708208)
(100.527 -0.238693 0.707799)
(100.53 -0.23955 0.707013)
(100.535 -0.240699 0.706017)
(100.543 -0.242261 0.704796)
(100.561 -0.244452 0.703294)
(99.994 0.0150233 0.00845448)
(99.9733 0.0306109 0.0173192)
(99.9347 0.0473142 0.0274928)
(99.8766 0.06535 0.0400018)
(99.7967 0.0840788 0.0559362)
(99.6913 0.101397 0.0765775)
(99.5574 0.112616 0.103321)
(99.3946 0.10904 0.137743)
(99.2085 0.0762625 0.181297)
(99.0174 -0.00608715 0.23473)
(98.861 -0.154451 0.297351)
(98.8048 -0.361346 0.366545)
(98.8909 -0.577239 0.436787)
(99.0957 -0.731783 0.500799)
(99.3493 -0.806406 0.552644)
(99.5912 -0.8328 0.591878)
(99.7998 -0.831353 0.621011)
(99.9734 -0.81372 0.643162)
(100.113 -0.788604 0.660531)
(100.222 -0.76188 0.674363)
(100.303 -0.737421 0.685408)
(100.363 -0.717892 0.694756)
(100.406 -0.70382 0.702895)
(100.436 -0.694705 0.709842)
(100.457 -0.688506 0.715736)
(100.473 -0.683961 0.720844)
(100.484 -0.680899 0.725295)
(100.492 -0.679123 0.729177)
(100.498 -0.678133 0.732546)
(100.502 -0.67749 0.735384)
(100.505 -0.676949 0.737666)
(100.506 -0.676423 0.739398)
(100.507 -0.675909 0.740662)
(100.507 -0.675576 0.741522)
(100.508 -0.675709 0.742013)
(100.509 -0.676648 0.742153)
(100.511 -0.678782 0.741932)
(100.515 -0.682404 0.741352)
(100.523 -0.687711 0.740367)
(100.539 -0.694745 0.738955)
(99.9943 0.0246439 0.00801552)
(99.9746 0.0504334 0.0164201)
(99.9374 0.0786122 0.0261391)
(99.8804 0.10995 0.0381781)
(99.8 0.144112 0.0536646)
(99.6899 0.178755 0.0740003)
(99.5425 0.207648 0.100885)
(99.3506 0.217343 0.136342)
(99.1113 0.18165 0.182564)
(98.8415 0.053113 0.241447)
(98.5995 -0.273959 0.313521)
(98.4936 -0.724308 0.394866)
(98.616 -1.1275 0.476926)
(98.9133 -1.35403 0.550669)
(99.2457 -1.44378 0.607346)
(99.5342 -1.46968 0.647621)
(99.7706 -1.45298 0.676353)
(99.9597 -1.414 0.698007)
(100.107 -1.36704 0.715032)
(100.217 -1.31906 0.728398)
(100.297 -1.27565 0.738197)
(100.353 -1.23754 0.746259)
(100.391 -1.21656 0.753327)
(100.418 -1.20978 0.759257)
(100.438 -1.20846 0.764059)
(100.452 -1.20871 0.768036)
(100.461 -1.20992 0.771503)
(100.465 -1.21169 0.774636)
(100.467 -1.21338 0.777494)
(100.467 -1.2145 0.780067)
(100.465 -1.21481 0.782316)
(100.463 -1.21434 0.78421)
(100.459 -1.21329 0.785734)
(100.455 -1.21202 0.78688)
(100.45 -1.2111 0.787631)
(100.446 -1.21117 0.787942)
(100.443 -1.21294 0.787736)
(100.442 -1.21699 0.786911)
(100.445 -1.22366 0.785388)
(100.455 -1.23259 0.78328)
(99.9949 0.0335082 0.00733454)
(99.9771 0.0689433 0.015042)
(99.9431 0.108561 0.0240027)
(99.89 0.154278 0.0351957)
(99.8123 0.207158 0.0497598)
(99.7006 0.266574 0.0691743)
(99.5409 0.328237 0.0954027)
(99.3126 0.379615 0.130976)
(98.9871 0.391212 0.179102)
(98.5012 0.191651 0.243646)
(98.2459 0.00858814 0.276193)
(97.909 -0.649395 0.351305)
(97.9806 -1.44044 0.43168)
(98.4545 -1.94523 0.507309)
(98.9384 -2.08682 0.565303)
(99.3152 -2.1191 0.603486)
(99.6241 -2.08659 0.628499)
(99.8646 -2.01755 0.646776)
(100.047 -1.93826 0.661508)
(100.184 -1.86388 0.673877)
(100.354 -1.88337 0.80227)
(100.392 -1.80301 0.807591)
(100.399 -1.75125 0.809666)
(100.4 -1.72603 0.810938)
(100.401 -1.71444 0.812626)
(100.396 -1.71103 0.814975)
(100.385 -1.71291 0.817957)
(100.369 -1.71738 0.821481)
(100.349 -1.72227 0.825377)
(100.328 -1.72626 0.829405)
(100.304 -1.72866 0.83331)
(100.28 -1.72932 0.836851)
(100.255 -1.72849 0.839827)
(100.23 -1.72681 0.842065)
(100.205 -1.72517 0.843419)
(100.18 -1.7247 0.843735)
(100.155 -1.72663 0.842809)
(100.132 -1.73216 0.840389)
(100.111 -1.74216 0.836208)
(100.093 -1.75616 0.83014)
(99.9959 0.0409123 0.00640554)
(99.9814 0.0846417 0.0131599)
(99.9533 0.134711 0.0210281)
(99.9084 0.194716 0.0308959)
(99.8403 0.268231 0.0438191)
(99.7378 0.358716 0.061208)
(99.5814 0.468678 0.0850275)
(99.3388 0.596429 0.117929)
(98.906 0.728021 0.163412)
(98.5648 0.728652 0.188992)
(97.763 0.334044 0.25352)
(96.9747 -0.730701 0.336267)
(97.0823 -2.35852 0.432872)
(98.1961 -2.93913 0.523054)
(98.8865 -2.95014 0.584188)
(99.3283 -2.9161 0.614389)
(99.6849 -2.8123 0.631527)
(99.9376 -2.68575 0.64728)
(100.115 -2.56199 0.663487)
(100.234 -2.45688 0.678903)
(100.316 -2.39663 0.697243)
(100.27 -2.5097 0.799948)
(100.125 -2.50242 0.783325)
(99.9833 -2.48378 0.762607)
(99.853 -2.46284 0.744084)
(99.7264 -2.44686 0.729749)
(99.6031 -2.43565 0.719764)
(99.4852 -2.42678 0.713771)
(99.3743 -2.41827 0.711106)
(99.271 -2.40884 0.710896)
(99.1755 -2.39772 0.712204)
(99.0879 -2.38458 0.714133)
(99.0078 -2.36961 0.715888)
(98.9346 -2.35347 0.716801)
(98.8673 -2.33725 0.716333)
(98.8052 -2.32237 0.714033)
(98.7474 -2.3105 0.709444)
(98.6939 -2.30366 0.702078)
(98.6463 -2.30442 0.691414)
(98.6029 -2.3168 0.677284)
(99.9973 0.0460342 0.00534681)
(99.9876 0.0956665 0.0108877)
(99.9686 0.153677 0.0173077)
(99.9375 0.225466 0.0253239)
(99.8887 0.317594 0.0357608)
(99.8121 0.439003 0.0497209)
(99.6884 0.602807 0.0687314)
(99.4811 0.8285 0.0948605)
(99.0664 1.14612 0.130737)
(98.6589 1.30247 0.151943)
(97.7089 1.43337 0.180568)
(95.6186 0.644672 0.233366)
(94.4557 -3.48589 0.332336)
(98.2791 -4.70817 0.445955)
(98.7593 -3.81247 0.487501)
(99.2771 -3.73816 0.488365)
(99.6716 -3.52737 0.494336)
(99.8696 -3.30443 0.521271)
(99.9445 -3.11602 0.55774)
(99.9106 -2.94267 0.588426)
(98.7795 -2.70611 0.695664)
(95.2275 -2.2947 0.412224)
(95.2559 -2.42476 0.393145)
(95.2951 -2.51297 0.369998)
(95.3223 -2.57722 0.348605)
(95.3445 -2.62825 0.330999)
(95.3701 -2.66779 0.317314)
(95.4014 -2.69589 0.307198)
(95.4376 -2.71314 0.300068)
(95.4776 -2.7205 0.295197)
(95.5207 -2.71901 0.291836)
(95.5664 -2.70989 0.289328)
(95.6147 -2.69465 0.287081)
(95.6657 -2.67509 0.28463)
(95.7196 -2.65331 0.281595)
(95.7766 -2.63161 0.277585)
(95.837 -2.61242 0.272089)
(95.9008 -2.59826 0.264351)
(95.9671 -2.59203 0.253165)
(96.0511 -2.59804 0.236441)
(99.999 0.0479506 0.00404861)
(99.9953 0.0999795 0.00822627)
(99.988 0.161708 0.0129698)
(99.9757 0.239757 0.0187289)
(99.9557 0.342827 0.0259696)
(99.9231 0.484065 0.0352508)
(99.8696 0.684868 0.0472356)
(99.7801 0.982852 0.0625209)
(99.6046 1.44981 0.081189)
(99.3344 1.84321 0.0922409)
(98.6074 2.76381 0.103571)
(95.4417 5.70354 0.125201)
(77.3367 -4.59461 0.274568)
(49.6435 -3.03282 -1.3339)
(71.8659 -3.78782 -0.728115)
(75.2585 -2.86928 -0.744469)
(78.3671 -2.59257 -0.759256)
(81.2813 -2.58104 -0.740201)
(83.9217 -2.70763 -0.68435)
(91.9639 -3.52721 -0.694665)
(95.8907 -3.2738 -0.621188)
(96.1089 -3.19193 -0.589934)
(96.34 -3.14108 -0.563475)
(96.5383 -3.10768 -0.544147)
(96.7083 -3.08122 -0.5319)
(96.8579 -3.05683 -0.525593)
(96.989 -3.03243 -0.523788)
(97.1018 -3.00714 -0.52501)
(97.1972 -2.98071 -0.527879)
(97.2767 -2.95335 -0.531213)
(97.3426 -2.92557 -0.534095)
(97.3978 -2.89806 -0.535884)
(97.4454 -2.87168 -0.536261)
(97.4885 -2.84734 -0.535186)
(97.5304 -2.82594 -0.532907)
(97.5735 -2.80818 -0.530011)
(97.6201 -2.79436 -0.52741)
(97.6711 -2.78388 -0.526414)
(97.7415 -2.77385 -0.528624)
(100.001 0.0460404 0.00273664)
(100.004 0.096243 0.00548812)
(100.009 0.156265 0.00845536)
(100.018 0.232821 0.0117821)
(100.031 0.334831 0.0155217)
(100.05 0.475557 0.0196051)
(100.082 0.675928 0.023672)
(100.14 0.971059 0.0266874)
(100.276 1.42223 0.0261119)
(100.32 1.82789 0.0248252)
(100.581 2.8034 0.0146482)
(102.356 5.32798 -0.0178285)
(110.97 4.05673 -0.020524)
(109.014 -6.53214 -0.256479)
(102.803 -6.68755 -0.363503)
(101.156 -4.89428 -0.436074)
(100.698 -3.89633 -0.484936)
(100.517 -3.34567 -0.515418)
(100.428 -3.02839 -0.532557)
(100.36 -2.85163 -0.53969)
(100.248 -2.68366 -0.619779)
(100.269 -2.29804 -0.730881)
(100.258 -2.20828 -0.719162)
(100.251 -2.16359 -0.706549)
(100.245 -2.14464 -0.697246)
(100.238 -2.13593 -0.692139)
(100.233 -2.13116 -0.690774)
(100.231 -2.12791 -0.692449)
(100.23 -2.12475 -0.696397)
(100.231 -2.12088 -0.701824)
(100.234 -2.11611 -0.707993)
(100.237 -2.11075 -0.714285)
(100.241 -2.10541 -0.720221)
(100.245 -2.10082 -0.725473)
(100.248 -2.09769 -0.729932)
(100.25 -2.09656 -0.73368)
(100.251 -2.09764 -0.73704)
(100.251 -2.1006 -0.740539)
(100.251 -2.10422 -0.744815)
(100.254 -2.10574 -0.750081)
(100.003 0.0403495 0.00147061)
(100.012 0.0844705 0.00289637)
(100.029 0.137217 0.0041907)
(100.057 0.204374 0.00521884)
(100.1 0.293251 0.00567183)
(100.164 0.413745 0.00495153)
(100.264 0.579746 0.00193727)
(100.425 0.810397 -0.00543189)
(100.733 1.12976 -0.0210354)
(100.953 1.36647 -0.0315445)
(101.789 1.82031 -0.0685491)
(103.383 1.73135 -0.140096)
(105.154 -0.241073 -0.248742)
(104.715 -2.79491 -0.376369)
(102.956 -3.52175 -0.477691)
(101.76 -3.30437 -0.543312)
(101.143 -2.95346 -0.581397)
(100.814 -2.65662 -0.601889)
(100.624 -2.43515 -0.612742)
(100.497 -2.27331 -0.618295)
(100.405 -2.14478 -0.621281)
(100.306 -1.85139 -0.758241)
(100.273 -1.82281 -0.753749)
(100.249 -1.80613 -0.749486)
(100.234 -1.79731 -0.746312)
(100.224 -1.79133 -0.744219)
(100.217 -1.7856 -0.742983)
(100.213 -1.77927 -0.742344)
(100.211 -1.77203 -0.742032)
(100.211 -1.76376 -0.741795)
(100.214 -1.75458 -0.741448)
(100.218 -1.74479 -0.740881)
(100.223 -1.73482 -0.740073)
(100.229 -1.72511 -0.739072)
(100.235 -1.71602 -0.738042)
(100.241 -1.70785 -0.737229)
(100.247 -1.70069 -0.736978)
(100.252 -1.69444 -0.737716)
(100.257 -1.68893 -0.739918)
(100.267 -1.68461 -0.744011)
(100.004 0.0313338 0.000421133)
(100.018 0.0655596 0.000717954)
(100.046 0.106364 0.000613907)
(100.089 0.157957 -0.000251064)
(100.154 0.225135 -0.00245579)
(100.249 0.313607 -0.00694552)
(100.39 0.429485 -0.0152446)
(100.601 0.577123 -0.0298312)
(100.926 0.752799 -0.0547478)
(101.399 0.836743 -0.0956986)
(102.025 0.744959 -0.158547)
(102.689 0.233285 -0.247707)
(103.044 -0.725286 -0.355888)
(102.807 -1.53578 -0.470368)
(102.185 -1.83436 -0.565021)
(101.576 -1.83587 -0.63008)
(101.147 -1.74861 -0.670121)
(100.87 -1.64422 -0.693947)
(100.686 -1.54673 -0.708475)
(100.556 -1.4623 -0.717322)
(100.465 -1.39066 -0.722216)
(100.404 -1.32753 -0.723865)
(100.36 -1.27933 -0.725089)
(100.328 -1.24188 -0.726531)
(100.303 -1.21335 -0.727982)
(100.285 -1.19177 -0.729408)
(100.27 -1.17501 -0.730887)
(100.259 -1.16152 -0.732399)
(100.25 -1.15025 -0.733834)
(100.245 -1.14048 -0.735074)
(100.241 -1.13178 -0.736036)
(100.24 -1.12392 -0.736687)
(100.24 -1.1169 -0.737047)
(100.241 -1.11078 -0.737178)
(100.243 -1.10565 -0.73722)
(100.246 -1.10158 -0.737362)
(100.248 -1.09857 -0.737852)
(100.251 -1.09653 -0.738994)
(100.255 -1.09543 -0.741125)
(100.257 -1.09553 -0.744509)
(100.005 0.0197854 -0.00035472)
(100.023 0.0413711 -0.00087117)
(100.057 0.0670575 -0.0019689)
(100.11 0.0992083 -0.0041452)
(100.188 0.140397 -0.00818625)
(100.3 0.193097 -0.015159)
(100.458 0.258713 -0.0266933)
(100.678 0.334869 -0.0451326)
(100.979 0.408931 -0.073684)
(101.367 0.443043 -0.116223)
(101.82 0.382576 -0.176406)
(102.241 0.154154 -0.255622)
(102.462 -0.253394 -0.348445)
(102.356 -0.668673 -0.442443)
(101.983 -0.901907 -0.523717)
(101.544 -0.956485 -0.583714)
(101.182 -0.926407 -0.623747)
(100.921 -0.872686 -0.649634)
(100.735 -0.818089 -0.666707)
(100.598 -0.769376 -0.678201)
(100.496 -0.729242 -0.685943)
(100.421 -0.700336 -0.691189)
(100.364 -0.68183 -0.695316)
(100.322 -0.670822 -0.698798)
(100.291 -0.66517 -0.701662)
(100.267 -0.663165 -0.703934)
(100.248 -0.663219 -0.705671)
(100.235 -0.664138 -0.706877)
(100.225 -0.66522 -0.707516)
(100.218 -0.666101 -0.707559)
(100.214 -0.666594 -0.707016)
(100.212 -0.666675 -0.705947)
(100.212 -0.666397 -0.704454)
(100.213 -0.665883 -0.702686)
(100.216 -0.66521 -0.700876)
(100.219 -0.66452 -0.699222)
(100.223 -0.663894 -0.697971)
(100.228 -0.663403 -0.697431)
(100.234 -0.663143 -0.697975)
(100.243 -0.663305 -0.700089)
(100.006 0.00675412 -0.000789066)
(100.025 0.0141297 -0.00169815)
(100.062 0.0228688 -0.00334602)
(100.12 0.0337327 -0.00613807)
(100.204 0.0475229 -0.0111378)
(100.323 0.0649005 -0.0193021)
(100.487 0.0858709 -0.0322788)
(100.705 0.109011 -0.0522549)
(100.987 0.129257 -0.0821256)
(101.326 0.134614 -0.124508)
(101.689 0.105832 -0.181547)
(102.004 0.0230165 -0.253027)
(102.169 -0.111036 -0.334326)
(102.111 -0.250259 -0.416214)
(101.852 -0.338032 -0.48839)
(101.508 -0.364994 -0.544599)
(101.19 -0.358993 -0.584206)
(100.94 -0.343606 -0.610861)
(100.755 -0.327795 -0.629028)
(100.615 -0.313804 -0.641757)
(100.509 -0.302353 -0.650933)
(100.43 -0.293737 -0.657763)
(100.372 -0.287065 -0.663167)
(100.328 -0.281435 -0.66765)
(100.295 -0.276267 -0.671549)
(100.27 -0.271251 -0.67487)
(100.251 -0.266176 -0.677564)
(100.236 -0.260945 -0.679603)
(100.224 -0.255578 -0.680963)
(100.216 -0.250155 -0.68164)
(100.21 -0.244773 -0.68166)
(100.207 -0.239532 -0.681092)
(100.205 -0.234533 -0.680038)
(100.206 -0.229866 -0.678605)
(100.208 -0.225576 -0.677227)
(100.211 -0.221736 -0.675964)
(100.214 -0.218396 -0.67502)
(100.219 -0.215599 -0.674701)
(100.225 -0.213483 -0.675373)
(100.231 -0.212581 -0.67752)
(99.9943 0.00491215 0.0134863)
(99.9749 0.00997304 0.0277292)
(99.9388 0.0153558 0.0441268)
(99.8851 0.0210863 0.0642545)
(99.8122 0.0268977 0.0897939)
(99.7182 0.0320435 0.12271)
(99.6024 0.0349569 0.165074)
(99.4671 0.0328554 0.219134)
(99.3206 0.0213604 0.286833)
(99.1809 -0.00534548 0.36887)
(99.0779 -0.052561 0.463923)
(99.0479 -0.117659 0.567443)
(99.1137 -0.183536 0.671392)
(99.2658 -0.232216 0.767017)
(99.4636 -0.255168 0.847119)
(99.6641 -0.261723 0.910097)
(99.8438 -0.259389 0.958042)
(99.9963 -0.251928 0.994504)
(100.121 -0.242063 1.02261)
(100.218 -0.232305 1.04471)
(100.293 -0.223911 1.06244)
(100.347 -0.217159 1.07737)
(100.387 -0.21215 1.09081)
(100.416 -0.209148 1.10334)
(100.438 -0.207841 1.11493)
(100.455 -0.20763 1.12534)
(100.47 -0.208095 1.13436)
(100.481 -0.208947 1.14193)
(100.491 -0.209932 1.14811)
(100.499 -0.210846 1.15293)
(100.505 -0.211575 1.15643)
(100.51 -0.212092 1.15874)
(100.514 -0.212416 1.16005)
(100.517 -0.212608 1.16056)
(100.519 -0.212751 1.16042)
(100.52 -0.212973 1.15976)
(100.522 -0.213408 1.15863)
(100.526 -0.214172 1.15706)
(100.532 -0.215401 1.15493)
(100.545 -0.217312 1.15194)
(99.9945 0.0146025 0.0131611)
(99.9755 0.0297481 0.0270608)
(99.9399 0.046021 0.0431333)
(99.8863 0.0636264 0.0629589)
(99.8126 0.0819728 0.0882754)
(99.7153 0.099109 0.121192)
(99.5918 0.110666 0.164111)
(99.4415 0.108438 0.219749)
(99.2698 0.0787818 0.29074)