/*--------------------------------*- C++ -*----------------------------------*\
| =========                 |                                                 |
| \\      /  F ield         | OpenFOAM: The Open Source CFD Toolbox           |
|  \\    /   O peration     | Version:  2306                                  |
|   \\  /    A nd           | Website:  www.openfoam.com                      |
|    \\/     M anipulation  |                                                 |
\*---------------------------------------------------------------------------*/
FoamFile
{
    version     2.0;
    format      ascii;
    arch        "LSB;label=32;scalar=64";
    class       volVectorField;
    location    "0.2";
    object      Force;
}
// * * * * * * * * * * * * * * * * * * * * * * * * * * * * * * * * * * * * * //

dimensions      [1 1 -2 0 0 0 0];

internalField   uniform (0 0 0);

boundaryField
{
    walls
    {
        type            calculated;
        value           uniform (0 0 0);
    }
    inlet
    {
        type            calculated;
        value           uniform (0 0 0);
    }
    outlet
    {
        type            calculated;
        value           uniform (0 0 0);
    }
    NASA
    {
        type            calculated;
        value           nonuniform List<vector> 
14179
(
(-0.0146499 -0.134698 6.16162e-06)
(-0.0131299 -0.108507 4.35082e-06)
(-0.0676233 -0.546643 0.000619563)
(-0.102736 -0.824776 0.00216611)
(-0.0666916 -0.539707 0.000319417)
(-0.110527 -0.887261 0.0023848)
(0.200166 0.868993 -0.000253552)
(0.0904084 0.453833 -5.47415e-05)
(0.647463 3.17404 0.00395469)
(0.0971981 0.487958 -5.99693e-05)
(-0.00120759 -0.0118875 4.55821e-06)
(-0.0179193 -0.14634 0.000400994)
(0.129786 0.647342 -0.00156953)
(-0.0357559 -0.324429 0.00100558)
(0.0615015 0.306551 -0.000716225)
(1.37217 0.925609 0.00280809)
(1.38868 0.920299 -0.000362534)
(0.0214683 0.120249 -4.05777e-05)
(0.162527 0.964555 -0.000115925)
(1.28828 0.853538 -0.00203445)
(-0.0171863 -0.240421 -9.18158e-06)
(-0.021468 -0.19957 -0.00012639)
(-0.0196576 -0.272862 -0.000239821)
(-0.00882716 -0.064252 2.67399e-06)
(-0.0133121 -0.110068 1.8203e-05)
(-0.00954061 -0.0694457 1.62949e-05)
(-0.0130529 -0.107296 0.000327609)
(-0.0151942 -0.108709 0.000343907)
(-0.0134503 -0.122577 0.000374722)
(-0.0158261 -0.216474 0.00373026)
(0.046481 0.202975 1.59519e-05)
(0.0521805 0.246024 8.02765e-07)
(0.0561157 0.264574 -8.13693e-05)
(0.0458459 0.199693 -2.06969e-05)
(0.0693587 0.254322 5.11677e-06)
(0.0750316 0.275137 2.15218e-05)
(0.0348998 0.12657 2.63716e-06)
(0.038631 0.140117 1.12362e-05)
(-0.00170167 -0.00827749 0.00014153)
(-0.0130474 -0.0634226 0.000661686)
(0.16739 0.610705 -0.00110837)
(0.0977781 0.352166 -0.000264885)
(0.0957571 0.480635 -6.82127e-05)
(-0.00613711 -0.0431 3.33573e-06)
(-0.00557737 -0.0391716 -2.33172e-06)
(0.153576 0.771298 -0.000101539)
(-0.00980461 -0.0677502 0.000246614)
(0.0964251 0.480767 -0.000607421)
(0.0895785 0.447042 -0.000684165)
(0.106918 0.43682 -0.000353095)
(0.083934 0.312011 -2.10201e-05)
(0.0835899 0.310726 -4.87968e-05)
(-0.0651912 1.59168 -0.000180796)
(1.38353 0.91984 -0.000756637)
(-0.0512229 1.251 7.69401e-05)
(-0.00291058 1.44704 -0.000163992)
(0.0783828 1.18622 3.08266e-05)
(0.0728754 1.0986 -0.000205659)
(-0.00315325 1.41603 -2.39918e-05)
(0.0936548 0.367917 -1.68458e-05)
(0.163052 0.966836 -0.000135379)
(0.00825179 0.0300362 3.18304e-05)
(-0.0227536 0.568428 -0.000792999)
(0.931744 0.635534 0.0775655)
(-0.000612276 0.533773 -0.00103749)
(0.0271385 0.410671 -0.000686629)
(0.127054 0.742525 0.00684991)
(-0.0147579 -0.14763 8.81446e-06)
(-0.0145907 -0.134238 1.14435e-05)
(-0.101264 -0.81307 0.00213154)
(-0.011608 -0.0920226 4.43297e-06)
(-0.0131074 -0.108329 9.07288e-06)
(1.33254 0.881835 -0.00275637)
(1.28582 0.851186 -0.00244366)
(0.344547 2.03976 -0.00597194)
(0.259289 1.52948 -0.00401499)
(-0.111696 -0.897796 0.000928743)
(-0.0561344 -0.348884 0.000973391)
(-0.0551207 -0.344832 0.000974897)
(-0.0418533 -0.245268 0.000708198)
(0.155562 0.670249 -0.00188058)
(0.174208 0.752223 -0.00205794)
(0.75888 1.30294 -5.98191e-05)
(0.759445 1.30194 -0.00033714)
(0.0901265 0.452384 -5.91201e-05)
(0.0820731 0.394287 -3.6299e-05)
(-0.000485808 -0.00448723 -7.22686e-07)
(0.0012248 0.00593864 -1.20432e-07)
(0.00125514 0.00610998 -1.9685e-06)
(-0.000476818 -0.00442373 3.36254e-07)
(0.0978954 0.49152 -4.86459e-05)
(0.0930184 0.479787 -4.61509e-05)
(-0.0201454 -0.16434 0.00047379)
(-0.0134899 -0.0965032 0.000295876)
(-0.0202905 -0.144663 0.000416198)
(-0.0122978 -0.0846588 0.000275892)
(-0.0180191 -0.123383 0.000312608)
(0.0849326 0.423256 -0.00118888)
(-0.0201711 -0.183125 0.000510839)
(-0.0249346 -0.34167 0.0011828)
(-0.0210587 -0.294892 0.000227739)
(0.0796483 0.397286 -0.00108731)
(1.36965 0.919846 -0.00268085)
(0.0994967 0.586616 -6.53104e-05)
(0.107529 0.601456 -3.36176e-05)
(0.108105 0.604433 -6.46905e-05)
(0.184591 1.28495 -0.000149692)
(0.10448 0.61971 -6.35714e-05)
(0.161959 0.960833 -9.70125e-05)
(0.0232417 0.0219608 1.97214e-05)
(0.336637 -0.124051 0.00337778)
(0.357278 -0.141645 0.00168286)
(0.0170261 0.016371 -4.42692e-05)
(-0.00585188 -0.025258 0.000148432)
(0.0228388 0.0841382 -0.000174638)
(0.00337971 0.0118692 4.19826e-05)
(0.0232555 0.093595 -9.23718e-05)
(-0.00887892 -0.0396401 0.00013171)
(-0.00104602 -0.00662015 9.96449e-05)
(0.00504194 0.0211518 -5.81755e-06)
(-0.0176909 -0.0855087 0.000243668)
(-0.00089612 0.730594 -0.00181081)
(0.0407939 0.606972 -0.00157352)
(-0.00132763 0.978493 -0.00248124)
(0.0318869 0.480858 -0.00156415)
(-0.0345164 0.867991 -0.00235326)
(1.11328 0.748558 -0.002103)
(-0.0467681 1.16359 -0.00292147)
(0.109178 0.645221 -0.0026898)
(0.154785 0.605565 -0.0018688)
(0.11659 0.455535 -0.00116675)
(0.107224 0.390911 -0.000979069)
(0.151381 0.552578 -0.00139699)
(0.0623267 0.224652 -0.000560229)
(0.0850009 0.3069 -0.000843163)
(-0.0132925 -0.149735 4.75371e-07)
(-0.017068 -0.238445 1.51795e-05)
(-0.01066 -0.0820776 4.19857e-06)
(-0.00867689 -0.0631618 4.51544e-06)
(0.000456317 0.00101464 0.539014)
(-0.0130653 -0.10261 0.000319023)
(0.000428308 0.000970474 0.512531)
(-0.0145159 -0.110404 0.000352158)
(0.000731908 0.00124815 0.58315)
(-0.0131847 -0.13131 0.000468353)
(0.000971363 0.00170052 0.584073)
(-0.0122954 -0.141184 0.00130007)
(0.0519745 0.24504 -3.24937e-05)
(0.0387921 0.176416 -9.86991e-06)
(0.0391053 0.177861 -2.4063e-05)
(0.0460683 0.200626 -1.98901e-05)
(0.0453156 0.199589 -1.21433e-05)
(0.0455532 0.200649 -2.49068e-05)
(0.069896 0.256213 1.20082e-05)
(0.0237177 0.117946 -1.5079e-05)
(0.0211697 0.107386 -1.36176e-05)
(0.0357507 0.129616 9.90796e-06)
(0.029887 0.105107 1.37121e-06)
(-0.00619317 -0.0283651 0.000238552)
(-0.00531051 -0.0253063 0.000264883)
(0.000347978 0.000769418 0.321857)
(0.000350425 0.000733942 0.31494)
(0.00034182 0.000719346 0.31145)
(0.000302974 0.000729527 0.357125)
(0.0919655 0.313076 7.38722e-06)
(0.157297 0.549488 0.00322397)
(-2.37743e-05 0.000781494 0.335321)
(0.000272736 0.000279631 0.302897)
(0.000120392 0.000262636 0.107544)
(0.0804878 0.282286 -0.000197294)
(0.283076 0.657615 -1.24858e-05)
(0.166682 0.587628 5.33823e-05)
(0.165002 0.581745 -4.30225e-05)
(0.078552 0.366826 -2.62117e-05)
(0.0794305 0.371016 -4.61975e-05)
(0.128479 0.613675 -4.93694e-05)
(0.0787071 0.35049 -4.14806e-05)
(0.0818439 0.371429 -2.21527e-05)
(0.0834312 0.378625 -4.57846e-05)
(0.0778662 0.346794 -1.51135e-05)
(-0.0050412 -0.0353323 1.6259e-06)
(-0.0060638 -0.0425888 1.89946e-06)
(0.148488 0.786654 -5.04743e-05)
(0.272572 0.469861 0.0109557)
(0.0008537 0.0034527 0.873359)
(0.00034881 0.00169712 0.41646)
(0.0500161 0.145394 -3.78582e-05)
(-0.0118373 -0.073742 0.000317628)
(-0.0119102 -0.0750714 0.000464493)
(0.000838816 0.00187126 0.685281)
(0.000275875 0.00032378 0.31154)
(0.0956246 0.490155 0.000356303)
(0.000445668 0.000295342 0.375488)
(0.139156 0.730429 0.00437643)
(0.00048447 0.000948762 0.349198)
(0.000338096 0.000766825 0.331749)
(-0.000408271 0.000458614 0.355354)
(6.87694e-05 0.00037157 0.112349)
(0.0798606 0.381064 -0.000623453)
(0.102358 0.47495 0.000275232)
(0.000412778 0.000236914 0.206098)
(9.49532e-05 0.000467896 0.107603)
(0.167963 0.705117 0.000948493)
(0.0839582 0.312095 -2.84149e-05)
(0.0799232 0.305945 -2.60086e-05)
(0.095225 0.388184 -4.27726e-05)
(0.0668543 0.269262 -1.2388e-05)
(-0.79842 2.55252 -0.0195965)
(-0.0551197 1.34852 -3.39114e-05)
(-0.150195 1.40394 0.000616852)
(0.0795508 1.20108 -0.000117038)
(0.0635777 1.36086 -7.11373e-05)
(-0.00301952 1.37758 -7.18205e-05)
(0.0380209 1.43817 -5.27558e-05)
(0.105915 1.16245 -7.39989e-05)
(0.144672 1.86883 -0.000102609)
(0.145105 1.87305 -0.000126363)
(0.105897 1.16325 -8.35404e-05)
(0.114778 1.17234 -8.86946e-05)
(0.115515 1.07513 -2.0637e-05)
(0.11935 1.11052 -0.000109808)
(0.112964 1.15405 -2.29739e-05)
(0.0612306 0.253668 -1.54446e-05)
(0.0564406 0.223901 -9.65656e-06)
(0.0929307 0.365032 -3.24864e-06)
(0.116079 0.786246 -0.000114512)
(0.113403 0.71422 -7.39799e-05)
(-0.000470599 0.000451946 0.574062)
(0.00076175 0.00280316 0.904758)
(0.00167596 0.00580036 0.000123579)
(0.000229924 0.00313552 0.74817)
(0.00287639 0.0101114 0.000117044)
(0.000375537 0.0101697 0.275274)
(-0.0608534 0.585193 -0.00136869)
(0.00734222 -0.00221912 1.75598)
(0.000306941 0.000636672 0.30467)
(0.0142869 0.517785 -0.00106364)
(0.000698382 0.000172785 0.245722)
(0.0233697 0.486789 -0.000870222)
(0.061428 0.527432 -0.00105864)
(0.0611376 0.517444 -0.001015)
(0.000328153 0.000519605 0.245162)
(0.000354886 0.000568393 0.26975)
(0.0576158 0.530411 -0.000959671)
(0.0523942 0.527314 -0.000666169)
(0.047445 0.517923 0.000664326)
(1.86358e-05 -0.000524243 0.225593)
(-0.0193462 -0.10606 0.00123526)
(7.88243e-05 0.00094956 0.507968)
(0.091179 0.506347 -0.00060985)
(0.000342111 0.000739622 0.322105)
(0.000345046 0.000743409 0.323341)
(0.4823 -0.192233 -0.00384137)
(0.22398 0.211704 0.00208631)
(0.000178405 0.000131776 0.0786246)
(-0.0538751 -0.529198 0.00100303)
(-0.0714244 -0.576393 0.00110209)
(-0.0575295 -0.564129 0.00131089)
(-0.0717471 -0.578942 0.0011277)
(-0.0785408 -0.632684 0.001482)
(-0.0625928 -0.612821 0.00154186)
(-0.0887577 -0.713723 0.00180922)
(0.176892 0.764652 -0.00209626)
(0.44406 2.17211 -0.00576306)
(0.180627 0.781218 -0.00213256)
(0.423592 2.07141 -0.00551669)
(-0.0667687 -0.540193 0.000359802)
(-0.0427621 -0.266292 0.000720995)
(-0.106511 -0.85481 0.00225699)
(-0.0480929 -0.299071 0.00081368)
(1.38595 0.918491 -0.000778588)
(1.38878 0.920351 -0.000385637)
(0.201293 0.873896 -0.000303761)
(0.627594 3.07934 -0.00177441)
(0.59106 2.89945 -0.0010127)
(0.228392 0.991387 -0.000503913)
(0.430976 2.55489 -0.000972816)
(0.461136 2.73372 -0.00176711)
(-0.00175477 -0.0141493 9.82259e-06)
(-0.00128838 -0.0118856 5.17702e-06)
(0.0213523 0.12067 -7.62353e-05)
(0.0218062 0.122739 -5.03044e-05)
(0.0522586 0.22668 -0.000484965)
(0.0384607 0.174638 -0.000371937)
(0.0623143 0.27104 -0.000618579)
(0.0302668 0.136552 -0.000259064)
(-0.109585 -0.880306 0.00237058)
(-0.0695557 -0.50454 0.00136176)
(0.0198216 0.0935842 -0.000124288)
(-0.00973708 -0.0542625 0.000206939)
(0.0627073 0.22847 -0.000639485)
(0.0705378 0.256966 -0.000696274)
(0.034048 0.122614 -0.000345006)
(0.039376 0.141793 -0.000384639)
(0.264841 1.19805 -0.00037724)
(0.169025 0.733297 -0.000109665)
(0.298542 1.41134 -0.000467035)
(0.140876 0.706905 -0.000135613)
(-0.019057 -0.160373 0.000182958)
(-0.043774 -0.324389 0.000350463)
(-0.00711431 -0.0519618 -1.08581e-05)
(-0.000293862 -0.00693504 3.35099e-06)
(-0.0191881 -0.131341 4.14876e-05)
(-0.0254971 -0.178017 9.64853e-05)
(0.096028 0.392636 0.000117864)
(0.0832741 0.309576 -0.000107339)
(0.0834511 0.310218 -6.66308e-05)
(0.107369 0.440494 -0.00072907)
(0.163668 0.718891 -0.000240643)
(0.140258 0.646338 -8.85483e-05)
(0.170939 0.75141 -0.00025083)
(0.179499 0.837048 -0.000104105)
(-0.00297241 1.44745 -0.000189696)
(0.0593486 0.895651 -0.000338608)
(-0.00288736 1.36251 -0.000443718)
(0.067872 1.02286 -0.00023115)
(-0.0666261 1.6276 -0.000209959)
(1.38663 0.920226 -0.000439676)
(-0.0653149 1.59577 -0.00049794)
(0.485808 4.16412 -0.00179811)
(0.0857818 0.337089 -5.0953e-05)
(0.0788305 0.309719 -0.000116658)
(0.0731837 0.268346 -9.62684e-05)
(0.0798449 0.292797 1.01639e-05)
(0.0558439 0.292675 -0.000133565)
(0.18148 0.895678 -0.0011653)
(0.0207481 0.115362 -7.07981e-05)
(0.0461706 0.247655 -8.29356e-05)
(0.833302 5.21329 0.0022843)
(0.389145 2.59926 0.00045372)
(0.0410196 0.148783 -5.57472e-05)
(0.0413791 0.150081 1.08152e-05)
(1.27004 0.843402 -0.000957754)
(0.0898761 0.621345 -0.00167724)
(0.247832 0.232375 -0.000549684)
(0.498723 -0.206892 0.000195377)
(0.234773 0.220817 -0.000601538)
(0.51724 -0.214941 -6.24868e-05)
(0.0719562 0.263827 1.7171e-05)
(0.0329343 0.115829 9.77749e-06)
(0.0372754 0.135187 1.33264e-05)
(0.283126 0.657742 -3.24275e-05)
(0.273523 0.802921 -0.000102661)
(0.000698937 0.00213404 0.737947)
(0.000270181 0.000993311 0.364886)
(0.000441957 0.000306477 0.384541)
(-0.196037 1.81706 -0.000231629)
(-0.0612737 1.49768 -6.37616e-05)
(1.37901 0.920191 -0.00143708)
(0.0230387 0.0217561 1.96912e-05)
(0.353522 -0.145296 0.000132396)
(0.357067 -0.145167 0.000574233)
(0.0208149 0.0196175 1.10492e-05)
(0.000403855 0.000946998 0.55189)
(0.000318701 0.000473992 0.382604)
(0.000303975 0.000617147 0.343463)
(0.000500074 0.000973833 0.367128)
(-0.0938378 -0.754028 0.00195238)
(1.36893 0.906007 -0.00285446)
(1.3563 0.897621 -0.00281873)
(1.33006 0.880208 -0.00275237)
(1.35564 0.897173 -0.00281677)
(0.394497 1.92804 -0.00515094)
(0.17364 0.749972 -0.00205838)
(0.175571 0.758808 -0.00208141)
(0.416059 2.03439 -0.00542672)
(0.268416 1.5836 -0.00419223)
(0.286652 1.69151 -0.00444185)
(-0.0244807 -0.144507 0.000406388)
(-0.0308455 -0.181278 0.000509565)
(-0.055076 -0.342155 0.000944361)
(-0.0500019 -0.31081 0.000848644)
(-0.0400569 -0.234655 0.000668551)
(-0.0332586 -0.19522 0.000550215)
(0.252921 2.1472 -0.00556914)
(0.240134 2.03794 -0.00539049)
(0.0260737 0.0961607 -0.000210396)
(0.0246476 0.0995356 -0.000249706)
(0.0364002 0.147893 -0.000129362)
(0.0341348 0.126119 -0.000301473)
(0.00243275 0.00987244 4.63508e-05)
(0.0294137 0.125905 -0.000172207)
(0.0384565 0.166024 -0.000315814)
(0.0236434 0.105339 -0.000134019)
(0.0420695 0.155613 -0.000388146)
(0.0464473 0.189244 -0.000210692)
(0.0364114 0.134582 -0.000326774)
(0.0426395 0.634162 -0.00163099)
(-0.00140158 1.02144 -0.0025899)
(-0.00156821 1.12522 -0.00285115)
(0.0469196 0.698081 -0.00180017)
(-0.0540754 1.34417 -0.00338263)
(1.31972 0.873331 -0.00272052)
(-0.0565131 1.40439 -0.00353813)
(-0.0485823 1.20842 -0.00303792)
(-0.0528918 1.31494 -0.00330862)
(1.31704 0.871546 -0.00271516)
(-0.00161549 1.15328 -0.00292216)
(0.0512085 0.763009 -0.00196078)
(-0.00170907 1.20896 -0.00306596)
(0.0482221 0.717947 -0.00182301)
(0.22546 1.33028 -0.00336742)
(0.409609 2.54503 -0.008754)
(0.236156 1.57029 -0.00414744)
(0.245856 1.4496 -0.00389004)
(0.40296 2.50966 -0.00656044)
(0.375648 2.33857 -0.00625413)
(0.19465 1.29219 -0.00444741)
(-0.0812763 -0.595667 0.00120277)
(-0.102573 -0.824229 0.00224525)
(-0.0665079 -0.440882 0.00120626)
(-0.0562476 -0.350067 0.000997959)
(-0.0796323 -0.533337 0.00137478)
(-0.0524742 -0.327426 0.000960048)
(-0.0229358 -0.127656 0.000402071)
(-0.0436178 -0.256023 0.000765276)
(0.00670308 0.0267006 0.000186335)
(-0.0461501 -0.272174 0.000811988)
(0.229378 1.0296 -0.00293311)
(0.177926 0.767841 -0.00207832)
(0.235976 1.11066 -0.00298841)
(0.17577 0.758771 -0.00206343)
(0.223064 1.00462 -0.00272248)
(0.239779 1.12765 -0.00338851)
(0.365475 1.78428 -0.00492227)
(0.104557 0.408438 -0.00105944)
(0.0883144 0.344908 -0.000926275)
(0.094192 0.343298 -0.000877887)
(0.0742143 0.270365 -0.000722875)
(0.08573 0.334846 -0.000912693)
(0.0797818 0.31168 -0.000865145)
(0.054643 0.196893 -0.000500494)
(0.0418823 0.150823 -0.000403104)
(0.126417 0.292832 -0.000723693)
(0.107633 0.249211 -0.000578236)
(-0.0207156 -0.15674 0.000459846)
(-0.0181248 -0.129443 0.000386461)
(0.0806158 0.411521 -0.00139009)
(0.0850989 0.424273 -0.00111222)
(0.123203 0.649651 -0.00234575)
(-0.0193643 -0.190955 0.000464431)
(-0.0199825 -0.181816 0.000516035)
(-0.0172863 -0.189718 0.000214816)
(-0.0213998 -0.295943 0.000754522)
(0.0765101 0.36574 -0.001114)
(0.0810137 0.403954 -0.00104813)
(-0.00351644 -0.0149742 9.61252e-05)
(0.00685113 0.0265749 4.50588e-05)
(0.000123874 -0.000320411 7.28536e-05)
(0.013748 0.0503576 -5.91959e-05)
(0.0177563 0.646231 -0.0016262)
(-0.00108591 0.843876 -0.002149)
(0.0269647 0.566011 -0.00150095)
(0.0361394 0.538856 -0.00146884)
(-0.105288 1.00367 -0.00394348)
(-0.0407999 1.01791 -0.0026143)
(1.23391 0.823693 0.000603532)
(-0.462284 1.50567 -0.0034103)
(-0.0446445 1.11169 -0.00280986)
(-0.140675 1.31261 -0.00323288)
(-0.0115703 -0.060435 0.000223176)
(-0.00829989 -0.0427285 0.000169896)
(-0.0100985 -0.051723 0.000199669)
(-0.00973302 -0.0510512 0.000193757)
(-0.0247009 -0.135452 0.000296318)
(0.000756218 0.00126698 0.390803)
(0.0582128 0.391002 -0.00104349)
(0.0918669 0.635235 -0.00180535)
(0.0602667 0.404517 -0.00114101)
(0.125194 0.456577 -0.0011262)
(0.151829 0.55399 -0.00137514)
(0.0721157 0.260024 -0.000637457)
(0.0609585 0.213057 -0.000530252)
(0.080133 0.280593 -0.000875389)
(0.0879776 0.317412 -0.000798352)
(0.445788 -0.186385 -0.00258008)
(0.211621 0.194265 0.000380275)
(0.258287 0.24015 -0.00037188)
(0.520366 -0.2172 -0.000885372)
(0.216057 0.935812 -0.00249533)
(0.532969 2.60987 -0.00672688)
(0.217548 0.942363 -0.0024583)
(0.549816 2.69202 -0.00703204)
(-0.0671718 -0.543183 0.000511751)
(-0.00257938 -0.0191794 2.42063e-05)
(-0.00220447 -0.0168728 1.77867e-05)
(0.24127 1.04696 -0.000971278)
(0.630291 3.09095 -0.00352188)
(0.227045 0.984941 -0.00112488)
(-0.06233 -0.4523 0.0011946)
(0.17602 0.774055 -0.000454148)
(0.142901 0.659527 -0.000438792)
(0.176237 0.775031 -0.000521682)
(0.142814 0.659079 -0.000386958)
(0.0606983 0.222408 -0.000128076)
(0.0641642 0.235216 -0.000118284)
(-0.0339248 -0.248827 0.000151211)
(0.161231 0.798014 -0.000524533)
(0.0630502 0.331563 -0.000215346)
(0.0315244 0.11424 -6.50469e-05)
(0.0333179 0.120799 -5.87562e-05)
(1.38847 0.920267 -0.000337607)
(0.0155928 0.0146111 -2.09961e-06)
(0.337966 -0.14026 -1.00185e-06)
(0.0120389 0.0112505 -7.61721e-06)
(0.336081 -0.139417 -4.43924e-06)
(-0.0241025 -0.151571 0.000398082)
(-0.0262406 -0.164715 0.000435779)
(-0.0408513 -0.254543 0.000688217)
(-0.0977713 -0.785298 0.00204814)
(-0.0363225 -0.226701 0.000609917)
(0.18251 0.789523 -0.0021533)
(0.194413 0.841764 -0.00228606)
(0.104362 0.45629 -0.00115356)
(0.0781482 0.35836 -0.000902475)
(0.107753 0.471227 -0.00119553)
(0.0749426 0.343529 -0.00086023)
(0.0454217 0.206959 -0.000470691)
(0.0708411 0.308634 -0.000728128)
(0.0776527 0.338649 -0.000816418)
(0.0512093 0.233776 -0.000550582)
(0.0578183 0.211342 -0.000620228)
(0.0561455 0.205092 -0.000601565)
(0.0609832 0.222216 -0.000627298)
(0.0573309 0.209006 -0.000601085)
(0.0144102 0.0736195 -0.000163669)
(0.0693123 0.339764 -0.000836573)
(-0.0691143 -0.501201 0.00134663)
(0.0273339 0.131153 -0.000242507)
(-0.00600787 -0.0343748 0.000143971)
(0.0343425 0.166084 -0.000347375)
(0.0314384 0.113636 -0.000339068)
(0.0300349 0.10848 -0.000323715)
(0.0328657 0.118369 -0.000336503)
(0.0304007 0.109545 -0.000318785)
(1.33153 0.881159 -0.00275126)
(1.29985 0.860204 -0.00260555)
(0.128112 0.120634 -0.000363124)
(0.360313 -0.149676 0.000245653)
(0.371217 -0.154206 0.000254843)
(0.116207 0.109413 -0.00033307)
(0.477645 -0.198174 0.000275571)
(0.218566 0.205773 -0.000585829)
(0.204485 0.192582 -0.000555022)
(0.458073 -0.19016 0.000279461)
(9.76841e-05 -0.011559 1.39092e-05)
(-1.04043e-05 -0.0194039 3.0781e-05)
(-0.0531734 -0.522668 0.000838868)
(-0.00010562 -0.0262786 4.9563e-05)
(-0.000161275 -0.0304457 4.81797e-05)
(-0.0698735 -0.564262 0.000915186)
(-0.0554573 -0.544233 0.00118187)
(-0.00018557 -0.0319654 7.67719e-05)
(-0.000127642 -0.0278088 6.21525e-05)
(-0.0740491 -0.597093 0.001293)
(-0.0745893 -0.60137 0.00131705)
(-0.000435457 -0.0498718 0.000126634)
(-0.0612628 -0.600105 0.00147237)
(-0.000611017 -0.0627172 0.000155313)
(-0.0853739 -0.686923 0.00169835)
(1.38211 0.914875 -0.00287532)
(1.38115 0.914208 -0.00288194)
(1.37959 0.913139 -0.00288384)
(1.38336 0.915665 -0.00288671)
(0.207686 0.899559 -0.00240782)
(0.522745 2.55924 -0.00674224)
(0.542167 2.65447 -0.0069472)
(0.19518 0.845324 -0.00227379)
(0.177759 0.768533 -0.00210345)
(0.234258 1.05601 -0.00285611)
(0.265078 1.24901 -0.00333441)
(0.437516 2.13992 -0.00568388)
(0.179303 0.775346 -0.00211894)
(0.241705 1.09 -0.00293563)
(0.254443 1.19852 -0.00321259)
(0.430049 2.10319 -0.0056003)
(1.38784 0.919619 -0.00146176)
(1.38904 0.920486 -0.00118976)
(1.38598 0.918504 -0.000834404)
(1.38933 0.920688 -0.00114659)
(0.463055 2.74448 -0.00198014)
(0.468122 2.77459 -0.00251975)
(-0.00183866 -0.0146339 1.11355e-05)
(-0.067021 -0.542031 0.00047299)
(-0.00206403 -0.0160082 1.57482e-05)
(0.0205242 0.115864 -0.00013486)
(0.0209211 0.11818 -0.000115668)
(0.0212765 0.120255 -8.46879e-05)
(0.0210734 0.11907 -0.000108588)
(0.236791 1.02773 -0.000628829)
(0.238059 1.03313 -0.000867127)
(0.662772 3.2513 -0.00281538)
(-0.0563425 -0.37377 0.000996912)
(-0.0444321 -0.276561 0.000749693)
(-0.0655506 -0.47546 0.00126256)
(-0.046332 -0.288242 0.000782836)
(-0.0606665 -0.402169 0.00107878)
(0.463733 3.97034 -0.00246092)
(0.481011 4.11802 -0.00207408)
(0.083213 0.309348 -0.000122281)
(0.107426 0.440757 0.0003888)
(0.107517 0.441139 -0.000801495)
(0.0831131 0.308984 -0.000163106)
(0.139319 0.6423 -0.000311)
(0.174539 0.767405 -0.000322386)
(0.175693 0.772579 -0.000390875)
(0.142334 0.656707 -0.000334831)
(0.10749 0.441025 0.000311873)
(0.0829926 0.308539 -0.000217004)
(0.107431 0.440774 -0.000876293)
(0.0830731 0.308838 -0.000178145)
(0.0577189 0.87222 -0.000326932)
(-0.00280697 1.3204 -0.000493715)
(-0.00250925 1.16858 -0.000612563)
(0.0596184 0.901647 -0.000435172)
(-0.0566831 1.38394 -0.000762812)
(1.38696 0.91916 -0.000625152)
(-0.0531161 1.2973 -0.00085935)
(-0.0640665 1.56505 -0.000564766)
(-0.0589704 1.43989 -0.000726246)
(1.3882 0.919977 -0.000556448)
(-0.00241141 1.11545 -0.000625395)
(0.0721378 1.09054 -0.000767852)
(-0.00246331 1.11216 -0.000735812)
(0.0638308 0.965382 -0.000510383)
(0.270954 1.22594 -0.000399228)
(0.20213 0.877444 -0.000339732)
(0.639021 3.13544 -0.00147296)
(0.369935 1.74917 -0.00095407)
(0.305923 1.44653 -0.000445546)
(0.625419 3.06844 -0.00128803)
(0.212921 0.924277 -0.000406631)
(0.327362 1.48104 -0.000772405)
(0.0776967 0.305235 -0.000127601)
(0.0731084 0.287169 -0.000144852)
(0.0745922 0.273453 -0.000109431)
(0.0654542 0.239957 -0.000112136)
(0.0729598 0.286557 -0.000152864)
(0.761303 4.76279 -0.00218385)
(0.455601 2.701 -0.00125484)
(0.753115 4.71335 -0.00224587)
(0.441689 2.95417 -0.00174482)
(0.476142 3.18397 -0.00153476)
(0.459074 2.72182 -0.00146371)
(-0.0320129 -0.235528 9.74389e-05)
(-0.0205809 -0.139266 8.67713e-05)
(-0.00162936 -0.0134586 8.38977e-06)
(-0.0197906 -0.134689 5.69757e-05)
(-0.0015832 -0.0133574 7.39459e-06)
(0.0623344 0.32728 -0.000134002)
(0.158892 0.785607 -0.000325262)
(0.161245 0.797783 -0.000398765)
(0.0473014 0.254822 -0.00016371)
(0.0214524 0.12118 -6.74879e-05)
(0.0473336 0.254491 -0.000105893)
(0.0214922 0.121245 -5.80173e-05)
(0.0403013 0.146125 -6.0612e-05)
(0.0339717 0.123178 -5.57233e-05)
(0.0648512 0.236264 -0.000655451)
(0.0672687 0.245055 -0.000672651)
(0.0313963 0.109622 -0.000309499)
(0.0355111 0.127877 -0.00035598)
(0.0371969 0.129877 -0.000351604)
(0.0371678 0.133836 -0.000368001)
(0.273034 0.801588 -0.00026944)
(0.273415 0.80262 -0.00017178)
(0.283767 0.659332 -0.000180322)
(0.283743 0.659261 -0.000154608)
(-0.200213 1.85545 -0.00028396)
(-0.0667713 1.6322 -0.00035462)
(1.38765 0.920095 -0.00035327)
(-0.849622 2.76313 -0.000735023)
(-0.0662583 1.61925 -0.000431959)
(-0.199799 1.85037 -0.000550629)
(0.0734258 0.269299 -5.72762e-05)
(0.0797841 0.29259 -4.01166e-06)
(0.0420037 0.152393 -2.07866e-05)
(0.0362468 0.127495 -4.88354e-05)
(0.0348962 0.122713 1.12288e-05)
(0.0438836 0.159186 6.05343e-06)
(0.416471 2.46105 -0.00642976)
(0.378231 2.2347 -0.00586614)
(-0.00274722 -0.018924 6.09686e-05)
(-0.00524537 -0.0333639 0.000100117)
(-0.0299066 -0.187253 0.000499694)
(-0.0272098 -0.170675 0.000452363)
(-0.00951512 -0.0580391 0.000167704)
(-0.00638027 -0.039924 0.000117699)
(1.36732 0.904951 -0.00285191)
(1.37581 0.910598 -0.00287351)
(1.38102 0.914081 -0.00288681)
(1.37628 0.910913 -0.00287469)
(-0.0222051 -0.131359 0.000370089)
(-0.016939 -0.100936 0.000285497)
(0.346232 2.04464 -0.00534974)
(0.369064 2.18031 -0.00572204)
(-0.0965363 -0.775478 0.00201895)
(-0.0311673 -0.195004 0.000521151)
(-0.0347444 -0.216998 0.000582975)
(-0.0109878 -0.066549 0.000190765)
(-0.0150911 -0.0902594 0.000256246)
(0.197815 0.856578 -0.00230887)
(0.512829 2.51064 -0.00663889)
(0.193505 0.838008 -0.00225228)
(0.476078 2.32996 -0.00618246)
(0.281945 2.3945 -0.00623)
(0.290043 2.46369 -0.00642101)
(0.0665507 0.271851 -0.000344109)
(0.0540262 0.200067 -0.000515106)
(0.0567609 0.210234 -0.00054383)
(0.0627661 0.256299 -0.000971985)
(0.0995811 0.435233 -0.00109399)
(0.0667033 0.305434 -0.000754025)
(0.0953275 0.416503 -0.00103998)
(0.0706134 0.323508 -0.000805419)
(0.0599198 0.221981 -0.000576996)
(0.0576677 0.213606 -0.000553598)
(0.0711417 0.290721 -0.000373411)
(-0.00198159 1.36501 -0.00346897)
(0.0573186 0.854602 -0.0021954)
(0.0585458 0.873024 -0.00224276)
(-0.00193594 1.33983 -0.00340308)
(-0.0634493 1.57544 -0.00397965)
(1.36594 0.904018 -0.0028435)
(-0.0640955 1.59123 -0.0040228)
(-0.00199774 1.37359 -0.00349041)
(0.0598927 0.893284 -0.00229516)
(-0.00202455 1.3851 -0.00352197)
(0.058944 0.879008 -0.00225828)
(-0.0630466 1.56554 -0.00395471)
(1.36334 0.902292 -0.00283681)
(-0.0619284 1.538 -0.00388244)
(0.314764 2.67448 -0.00693701)
(0.309228 2.62721 -0.00681901)
(0.0438625 0.162281 -0.000407506)
(0.0480991 0.178032 -0.000452412)
(0.0564323 0.230273 -0.000864443)
(0.0528476 0.195685 -0.000502772)
(0.0609948 0.249021 -0.000308645)
(0.0495275 0.183341 -0.000467419)
(0.0842155 0.367556 -0.000900875)
(0.0614669 0.281224 -0.000686379)
(0.0892973 0.389945 -0.000965357)
(0.0568697 0.259962 -0.000625417)
(-0.0571709 1.42057 -0.00358062)
(-0.0593764 1.4751 -0.00371824)
(1.34375 0.889285 -0.00278486)
(0.0520298 0.775348 -0.00199299)
(-0.00173876 1.22458 -0.00310714)
(-0.00182739 1.27871 -0.00324394)
(0.0543201 0.809633 -0.00208031)
(-0.0018545 1.29449 -0.00328473)
(0.0567869 0.846604 -0.00217535)
(0.0550979 0.821285 -0.00210945)
(-0.00191458 1.32888 -0.0033756)
(-0.0600295 1.49122 -0.00375986)
(1.34909 0.892822 -0.00279704)
(-0.0614713 1.52677 -0.00385451)
(0.0748543 0.292963 -0.000829877)
(0.0749353 0.293145 -0.000830821)
(0.055303 0.201829 -0.000590165)
(0.0557177 0.203483 -0.000596771)
(0.0753812 0.295206 -0.00083509)
(0.238878 1.1246 -0.00302954)
(0.401433 1.9623 -0.00526908)
(0.224213 1.01002 -0.00274101)
(0.173646 0.750176 -0.00206653)
(0.174701 0.754904 -0.00207534)
(0.231364 1.04281 -0.00282374)
(0.409302 2.00113 -0.00534014)
(0.250337 1.17905 -0.0031659)
(0.0760858 0.297404 -0.000837877)
(0.0757398 0.296101 -0.000835876)
(0.0748925 0.292929 -0.00082996)
(0.0552889 0.201731 -0.000588887)
(0.056602 0.206389 -0.000596398)
(0.261775 1.74086 -0.004565)
(0.417396 2.6 -0.00683635)
(0.27443 1.61913 -0.00426445)
(0.280824 1.657 -0.00436177)
(0.447139 2.78575 -0.00729795)
(0.437664 2.72666 -0.00715156)
(0.268282 1.78427 -0.00466516)
(-0.00156584 -0.0112443 5.94414e-05)
(-0.0264242 -0.155737 0.000437504)
(0.0536903 0.262211 -0.000620775)
(0.00675323 0.0331737 -5.11085e-05)
(-0.0287305 -0.169061 0.000474904)
(-0.00877347 -0.0503816 0.000168855)
(-0.0658125 -0.436105 0.00118545)
(-0.0534328 -0.331954 0.000912435)
(-0.0666061 -0.483043 0.00128662)
(-0.0517637 -0.321653 0.000879583)
(-0.0621407 -0.411859 0.00110843)
(0.458049 2.85393 -0.00746919)
(0.467043 2.91015 -0.00760778)
(0.290969 1.93574 -0.00504285)
(0.285234 1.89744 -0.00494702)
(-0.0201613 -0.112373 0.000349921)
(-0.0377722 -0.221353 0.000626385)
(0.0472374 0.230173 -0.000530498)
(0.00356454 0.016328 -3.98932e-06)
(0.0412141 0.20025 -0.000446746)
(-0.0354851 -0.208099 0.000586513)
(-0.011669 -0.0661068 0.000213242)
(0.0291649 0.105223 -0.000312818)
(0.029666 0.107119 -0.000319623)
(0.0291296 0.105066 -0.000311645)
(0.0299132 0.107812 -0.000315643)
(0.122023 0.357024 -0.000887168)
(0.147985 0.433199 -0.00111143)
(0.196142 0.454666 -0.00121419)
(0.190915 0.442539 -0.00117974)
(0.16352 0.378984 -0.000998015)
(0.171712 0.397998 -0.00105605)
(0.154962 0.453678 -0.00117118)
(-0.607421 1.97988 -0.00476437)
(1.32651 0.877834 -0.00273577)
(-0.0558007 1.3868 -0.00349223)
(-0.168354 1.56992 -0.00391188)
(-0.580273 1.89156 -0.00461192)
(-0.510611 1.66389 -0.00390496)
(-0.528742 1.72332 -0.0041504)
(-0.145858 1.36089 -0.00338456)
(-0.0500715 1.24524 -0.00312877)
(1.31011 0.86694 -0.00267481)
(-0.563181 1.83599 -0.00442195)
(0.0862585 0.314309 -0.000811657)
(0.0793931 0.289272 -0.000763423)
(0.141413 0.133171 -0.000396642)
(0.400508 -0.166376 0.000278517)
(0.385037 -0.159946 0.000266301)
(0.155212 0.146177 -0.000429498)
(0.0532516 0.186062 -0.000469967)
(0.0497198 0.179099 -0.000460177)
(0.0452267 0.16289 -0.00042871)
(0.0399117 0.139363 -0.00037092)
(0.185974 0.175164 -0.000507624)
(0.41836 -0.173782 0.000281767)
(0.436336 -0.181212 0.000286185)
(0.170916 0.16098 -0.000467308)
(0.638535 3.13136 -0.00374711)
(0.217252 0.942396 -0.00114959)
(0.224426 0.973282 -0.00125288)
(0.683669 3.35232 -0.00450976)
(0.234919 1.0183 -0.00210245)
(0.690216 3.3829 -0.00666345)
(0.23165 1.00426 -0.00196137)
(0.6794 3.32917 -0.00689837)
(0.240473 1.04181 -0.00262795)
(0.580211 2.8423 -0.00683783)
(0.232079 1.0056 -0.00240379)
(0.559506 2.74034 -0.00678419)
(-0.0674751 -0.545509 0.000584712)
(-0.034587 -0.253365 0.000291453)
(-0.0507502 -0.369084 0.000943746)
(-0.0611226 -0.443617 0.0011696)
(-0.1001 -0.803812 0.00210315)
(-0.0536172 -0.52681 0.000937197)
(-0.00539655 -0.162633 0.000305054)
(-0.00540653 -0.163023 0.000281247)
(4.89514e-05 -0.014983 2.88048e-05)
(-2.38513e-05 -0.0203753 3.30549e-05)