/*--------------------------------*- C++ -*----------------------------------*\
| =========                 |                                                 |
| \\      /  F ield         | OpenFOAM: The Open Source CFD Toolbox           |
|  \\    /   O peration     | Version:  2306                                  |
|   \\  /    A nd           | Website:  www.openfoam.com                      |
|    \\/     M anipulation  |                                                 |
\*---------------------------------------------------------------------------*/
FoamFile
{
    version     2.0;
    format      ascii;
    arch        "LSB;label=32;scalar=64";
    class       volScalarField;
    location    "0.2";
    object      p;
}
// * * * * * * * * * * * * * * * * * * * * * * * * * * * * * * * * * * * * * //

dimensions      [0 2 -2 0 0 0 0];

internalField   nonuniform List<scalar> 
111542
(
61.5296
62.8031
65.8614
70.8747
77.9095
87.16
98.7705
112.763
128.652
145.042
159.433
167.903
166.478
153.994
133.472
110.566
89.2181
70.9279
55.8354
43.7586
34.2608
26.9788
21.5118
17.3642
14.2229
11.8279
9.90691
8.43015
7.35036
6.54311
5.92766
5.44909
5.11985
4.86871
4.64217
4.39557
4.07125
3.65765
3.04283
2.11528
60.3715
61.6034
64.6294
69.5839
76.6137
86.0171
98.1489
113.25
131.154
150.812
169.584
182.02
180.624
164.134
138.301
111.673
88.3681
69.0793
53.5846
41.4711
32.2073
25.2209
19.9881
16.147
13.276
11.0586
9.32976
8.00952
7.01373
6.25317
5.66638
5.21475
4.87412
4.60419
4.36426
4.11544
3.81273
3.4085
2.827
2.00392
58.081
59.245
62.1311
66.9093
73.8365
83.4031
96.3024
113.328
135.134
161.567
189.332
209.939
209.382
183.717
147.603
114.617
87.5906
66.2708
49.9512
37.7267
28.7184
22.334
17.7497
14.392
11.6597
9.44362
7.77967
6.58136
5.71442
5.08146
4.62432
4.30248
4.08103
3.92649
3.80276
3.67328
3.49431
3.21219
2.75535
2.05018
54.724
55.7628
58.3614
62.7378
69.2614
78.641
92.0078
111.044
138.138
176.511
210.889
252.636
257.488
216.232
164.092
123.872
91.2065
66.5153
48.6168
35.7516
22.6164
16.5399
14.261
12.9372
11.0171
9.0243
7.43848
6.2529
5.34104
4.63092
4.08885
3.68512
3.38974
3.17265
3.0057
2.86028
2.69822
2.47143
2.10927
1.54413
50.4295
51.2644
53.3765
57.0024
62.5689
70.9067
83.4487
102.609
132.408
176.673
252.929
338.083
360.489
251.948
167.578
119.475
80.5929
54.5172
37.5781
26.914
20.3951
5.27593
4.80471
5.54143
5.00921
4.27085
3.7453
3.3582
3.0403
2.78864
2.60825
2.49083
2.42412
2.3915
2.37963
2.3725
2.34712
2.271
2.07574
1.59515
45.4149
45.9597
47.3631
49.8244
53.7131
59.7584
69.291
84.7752
111.002
165.455
258.783
452.728
614.818
240.524
167.567
111.046
64.3412
38.6217
23.8037
15.1909
16.1144
12.9697
12.5057
7.97066
4.79626
3.26852
2.43538
1.8255
1.35766
1.02973
0.81905
0.694223
0.631787
0.616275
0.63736
0.686619
0.759101
0.862845
1.05746
1.61028
39.9955
40.1771
40.6867
41.6246
43.1715
45.6719
49.7272
56.3571
67.323
106.9
183.061
414.17
1942.58
-430.336
191.751
77.2727
29.5512
14.3082
6.41091
-2.66202
-7.12837
15.2861
15.1451
9.46704
5.85277
4.3325
3.57466
3.00359
2.54433
2.2052
1.96669
1.80013
1.68759
1.61619
1.57657
1.55876
1.54096
1.49903
1.38691
1.08772
34.5757
34.3609
33.8944
33.1475
32.0564
30.4638
27.9936
23.7424
15.3864
18.1306
2.04788
-158.348
-1001.85
-1045.11
-312.447
-102.264
-47.4673
-27.0445
-17.6858
-11.1874
-4.43852
-7.71448
-5.74709
-4.17572
-3.39176
-2.55399
-1.7063
-1.01953
-0.493388
-0.0705403
0.283545
0.582461
0.833898
1.0413
1.20327
1.30863
1.32409
1.18256
0.741536
-0.316509
29.5545
29.0019
27.6161
25.2842
21.7542
16.4891
8.49556
-4.08458
-24.8385
-47.5438
-120.354
-264.487
-475.368
-505.247
-320.155
-175.647
-101.135
-61.7945
-39.6774
-25.5709
-15.4221
-8.33196
-4.20424
-1.33447
0.331129
1.32937
2.0216
2.4986
2.80044
2.98065
3.08354
3.13444
3.14483
3.11662
3.04164
2.89994
2.64754
2.20343
1.42205
0.0290025
25.4075
24.5443
22.4048
18.8035
13.3788
5.42717
-6.231
-23.5405
-49.7654
-90.5151
-147.825
-220.415
-286.121
-294.991
-238.072
-165.353
-110.146
-74.5961
-51.4979
-35.4596
-24.045
-16.3912
-11.3162
-7.75497
-5.26855
-3.51497
-2.2034
-1.18666
-0.397296
0.216569
0.699233
1.08046
1.37487
1.58541
1.70223
1.70625
1.55735
1.19052
0.517821
-0.543771
22.4367
21.3595
18.7029
14.2483
7.59373
-1.95991
-15.4937
-34.4819
-60.788
-96.3073
-141.108
-190.163
-228.948
-236.528
-206.594
-158.08
-113.767
-81.3141
-58.4902
-41.853
-29.4763
-20.4076
-13.7862
-8.9572
-5.45298
-2.92267
-1.08275
0.264719
1.24681
1.95347
2.4537
2.79697
3.01372
3.11702
3.09747
2.95472
2.65177
2.12729
1.29621
0.0216723
20.888
19.7154
16.7825
11.9251
4.66192
-5.60491
-19.8739
-39.2762
-64.9748
-97.369
-135.057
-172.775
-200.658
-207.092
-187.763
-152.057
-114.696
-84.2593
-61.6065
-44.7011
-31.9315
-22.3908
-15.4022
-10.3398
-6.72694
-4.13684
-2.2628
-0.892319
0.11713
0.861801
1.4096
1.80702
2.0834
2.25562
2.26091
2.16408
1.91186
1.44293
0.700297
-0.367709
61.0744
62.2922
65.2819
70.1413
76.9479
85.8841
97.1214
110.634
125.935
141.72
155.584
163.699
162.156
149.959
129.995
107.692
86.9311
69.1207
54.4334
42.6721
33.4692
26.3981
21.0354
16.9853
13.9001
11.5033
9.61911
8.17277
7.09358
6.29155
5.69481
5.25424
4.93824
4.70084
4.497
4.28341
4.01134
3.6263
3.03721
2.12379
59.9236
61.1117
64.0476
68.8478
75.6508
84.7422
96.4659
111.045
128.32
147.299
165.422
177.52
175.871
159.74
134.616
108.743
86.0793
67.3038
52.2341
40.4733
31.5027
24.7128
19.5898
15.8015
12.9526
10.7428
9.02754
7.72217
6.7392
5.9959
5.43253
5.00853
4.69203
4.44671
4.23612
4.02202
3.76078
3.39605
2.8506
2.03953
57.6516
58.7718
61.5635
66.1874
72.8853
82.1282
94.5858
111.028
132.099
157.669
184.536
204.4
203.939
178.878
143.737
111.701
85.3871
64.6074
48.7358
36.9075
28.2896
22.1049
17.5342
14.1078
11.3208
9.08348
7.42181
6.24169
5.4032
4.80483
4.38574
4.10254
3.91844
3.79905
3.71136
3.6203
3.48497
3.24869
2.82933
2.11796
54.3237
55.3188
57.8257
62.0523
68.3502
77.4033
90.3094
108.711
134.955
172.235
207.07
248.009
252.672
211.797
160.814
121.516
89.4292
65.1549
47.6039
35.067
22.4836
16.8915
14.2774
12.5843
10.4836
8.44193
6.87342
5.7369
4.88763
4.24375
3.76561
3.41944
3.17509
3.00365
2.88043
2.78081
2.67262
2.50625
2.19517
1.60456
50.0692
50.8629
52.8922
56.3832
61.7443
69.7796
81.886
100.431
129.385
173.641
248.801
332.873
354.537
246.448
164.338
117.643
79.1981
53.3815
36.6664
26.1472
19.5086
7.12049
5.55681
5.41894
4.53133
3.68086
3.14591
2.79873
2.54256
2.35879
2.24316
2.18205
2.16283
2.17013
2.19256
2.2218
2.24436
2.23156
2.10067
1.58367
45.1052
45.6138
46.9499
49.3037
53.0297
58.8364
68.0281
83.0363
108.628
162.976
256.034
448.974
609.544
234.455
164.797
110.29
63.9637
38.2415
23.3938
14.543
11.8
12.8957
11.549
6.60727
3.50042
2.17585
1.54887
1.12442
0.812654
0.605659
0.481179
0.412409
0.384938
0.390286
0.427325
0.500478
0.619531
0.810276
1.14762
1.87589
39.7407
39.8987
40.3624
41.2298
42.6763
45.0395
48.9173
55.3422
66.1352
105.707
182.169
415.926
1934.23
193.84
77.5942
29.8222
14.1344
5.94341
-3.90498
-11.4627
14.1176
13.8582
8.3456
5.08975
3.81303
3.14952
2.58502
2.08962
1.69381
1.39163
1.16485
1.00416
0.900901
0.851066
0.850143
0.889814
0.962776
1.07106
1.26982
34.3675
34.1523
33.6643
32.8891
31.7686
30.154
27.6914
23.5339
15.4795
18.4406
3.33137
-152.289
-978.229
-1034.03
-307.857
-100.711
-46.6317
-26.7978
-17.8195
-11.4548
-4.0067
-9.26096
-7.0335
-5.18759
-4.13797
-3.11588
-2.17267
-1.43966
-0.888672
-0.452284
-0.0916307
0.21113
0.467792
0.684257
0.864546
1.00387
1.07872
1.03168
0.728423
-0.179503
29.4189
28.8537
27.4674
25.1499
21.6562
16.469
8.63439
-3.63813
-23.8162
-46.2913
-117.369
-258.782
-466.72
-494.999
-314.562
-172.345
-99.08
-60.6551
-39.1648
-25.4483
-15.4545
-9.11336
-4.96161
-1.98148
-0.200683
0.879571
1.61077
2.09627
2.38905
2.55018
2.62952
2.65736
2.64922
2.61049
2.53725
2.4143
2.20327
1.82922
1.15241
-0.0970854
25.3082
24.4456
22.3299
18.7742
13.4329
5.63092
-5.77067
-22.6501
-48.1676
-87.7831
-143.493
-214.184
-278.558
-287.179
-231.711
-160.938
-107.34
-72.937
-50.6158
-35.1124
-24.0792
-16.7047
-11.739
-8.18794
-5.68179
-3.90362
-2.57113
-1.54072
-0.74546
-0.131971
0.34668
0.722715
1.01324
1.22365
1.34826
1.3709
1.25575
0.942085
0.346534
-0.611329
22.3678
21.3033
18.6789
14.2849
7.74928
-1.61408
-14.8439
-33.3617
-58.9623
-93.4886
-137.018
-184.695
-222.487
-230.054
-200.975
-153.906
-110.928
-79.498
-57.4023
-41.2853
-29.2833
-20.4782
-14.0146
-9.27069
-5.80872
-3.29786
-1.46588
-0.122582
0.854666
1.55458
2.04684
2.38204
2.59195
2.69215
2.68211
2.55387
2.27672
1.79642
1.03684
-0.115764
20.8369
19.6701
16.7872
11.9768
4.86758
-5.19755
-19.1466
-38.0791
-63.0728
-94.5873
-131.226
-167.898
-195.061
-201.482
-182.829
-148.103
-111.824
-82.3391
-60.3945
-44.0096
-31.6126
-22.3367
-15.527
-10.5901
-7.03167
-4.46578
-2.60322
-1.23748
-0.230247
0.512171
1.05675
1.44991
1.72016
1.87903
1.91674
1.83408
1.60041
1.16766
0.488127
-0.463032
60.1649
61.3
64.1106
68.669
75.04
83.3851
93.857
106.408
120.573
135.15
147.876
155.21
153.546
141.908
123
101.915
82.2834
65.4204
51.5146
40.3831
31.6711
24.9402
19.7992
15.9245
12.9887
10.713
8.93295
7.56051
6.52298
5.74554
5.16395
4.73109
4.41049
4.16757
3.96626
3.76763
3.52683
3.18684
2.67034
1.8799
59.0329
60.1378
62.8893
67.3862
73.7469
82.2279
93.1399
106.677
122.684
140.239
156.986
167.992
166.324
150.994
127.252
102.854
81.4441
63.6714
49.4153
38.303
29.8147
23.3062
18.3721
14.7733
12.104
10.0295
8.40112
7.14175
6.17614
5.43476
4.86518
4.43046
4.10033
3.84552
3.63635
3.4397
3.2158
2.91101
2.4545
1.77841
56.7988
57.8349
60.441
64.7611
71.0088
79.6137
91.1931
106.461
126.027
149.794
174.796
193.384
192.634
168.817
135.723
105.603
80.7256
61.0351
46.035
34.9019
26.8251
20.829
16.3558
13.0956
10.5081
8.42954
6.8634
5.73037
4.90857
4.30858
3.8775
3.57729
3.37503
3.24279
3.15364
3.08033
2.98785
2.82503
2.50926
1.92487
53.5305
54.4431
56.7711
60.7033
66.5571
74.9632
86.9452
104.049
128.506
163.398
197.675
236.666
240.862
201.353
152.937
115.843
85.1498
61.8912
45.1452
33.2464
20.8119
15.4797
13.2246
11.7354
9.69007
7.6301
6.00604
4.79758
3.8756
3.16773
2.63741
2.25272
1.98537
1.81015
1.70753
1.66027
1.64487
1.62064
1.50734
1.17932
49.3579
50.0755
51.9437
55.1696
60.125
67.5573
78.7801
96.0404
123.155
166.219
238.332
319.418
339.927
234.046
156.801
113.048
75.6821
50.5532
34.3888
24.2856
18.021
4.51477
3.99426
4.55309
3.83239
2.94381
2.33786
1.91993
1.59722
1.3556
1.19072
1.08936
1.04196
1.03567
1.067
1.13822
1.2547
1.41071
1.54933
1.40908
44.4961
44.9412
46.1471
48.2894
51.6925
57.0196
65.5094
79.4918
103.611
156.624
247.72
437.152
593.654
219.672
160.85
108.275
61.7304
35.9159
21.2582
12.6452
8.08988
10.5649
8.97174
3.9512
0.665703
-0.88064
-1.66361
-2.17227
-2.52276
-2.74251
-2.86245
-2.91552
-2.90579
-2.84259
-2.71978
-2.51955
-2.20732
-1.71599
-0.886906
0.759137
39.2476
39.3625
39.7394
40.4698
41.7163
43.7993
47.2961
53.2394
63.5046
102.381
178.331
412.524
1915.48
202.74
76.4332
27.9961
11.9127
3.92119
-5.05172
-7.38681
13.3566
11.794
5.40104
1.82925
0.490978
-0.109427
-0.533964
-0.85379
-1.07116
-1.20853
-1.28998
-1.32589
-1.31419
-1.2483
-1.11443
-0.890877
-0.548846
-0.0374738
0.689411
33.9914
33.7566
33.23
32.4032
31.2238
29.5568
27.0898
23.0747
15.5316
18.8879
5.65104
-142.773
-954.147
-1007.31
-297.913
-95.4107
-44.3321
-26.2577
-18.1841
-12.2937
-4.84955
-9.02785
-7.72404
-6.5358
-5.59623
-4.51045
-3.49302
-2.69272
-2.08287
-1.6007
-1.20544
-0.873974
-0.590749
-0.343724
-0.115959
0.0992895
0.298467
0.445187
0.422833
-0.148089
29.1584
28.5872
27.2091
24.9217
21.4985
16.4614
8.93132
-2.74378
-21.7831
-43.2528
-110.58
-245.875
-446.476
-474.231
-300.515
-164.021
-94.4039
-58.2638
-38.1565
-25.255
-15.7018
-9.62078
-5.88746
-3.19737
-1.54671
-0.519322
0.205877
0.7219
1.06926
1.29667
1.4475
1.54795
1.61235
1.64663
1.65518
1.63065
1.54753
1.34536
0.892139
-0.104025
25.1391
24.2897
22.2193
18.7566
13.5833
6.07448
-4.82407
-20.8542
-44.9595
-82.2589
-134.699
-201.511
-262.805
-271.354
-219.1
-152.338
-101.965
-69.756
-48.8659
-34.3225
-23.9534
-17.0492
-12.1935
-8.70867
-6.29708
-4.59037
-3.28356
-2.24669
-1.42959
-0.788247
-0.278855
0.129249
0.454362
0.701844
0.873595
0.958524
0.928729
0.731334
0.282589
-0.530624
22.2635
21.2247
18.6711
14.4108
8.10448
-0.883744
-13.5128
-31.0974
-55.2987
-87.8383
-128.83
-173.812
-209.692
-217.145
-189.945
-145.694
-105.327
-75.8529
-55.1251
-39.9788
-28.6727
-20.34
-14.1236
-9.5539
-6.24714
-3.8556
-2.09732
-0.790878
0.174227
0.878525
1.38681
1.74644
1.98796
2.1266
2.16698
2.10055
1.90226
1.52566
0.898249
-0.104358
20.7632
19.6304
16.8315
12.1726
5.32054
-4.33519
-17.6463
-35.6285
-59.2672
-88.9979
-123.524
-158.117
-183.862
-190.166
-172.826
-140.267
-106.201
-78.5213
-57.9033
-42.4833
-30.7894
-22.0071
-15.5125
-10.7715
-7.34163
-4.86762
-3.06678
-1.73534
-0.7416
0.00163981
0.556683
0.967455
1.26137
1.45039
1.53473
1.50405
1.33526
0.989697
0.421445
-0.410781
58.8449
59.8667
62.4153
66.5463
72.2999
79.802
89.1679
100.329
112.844
125.629
136.659
142.801
140.958
130.158
112.837
93.5722
75.6061
60.1377
47.3757
37.1636
29.1579
22.9173
18.0735
14.3775
11.5833
9.44306
7.78745
6.51838
5.56234
4.84868
4.31786
3.92634
3.64029
3.42948
3.26348
3.11001
2.93071
2.67396
2.27113
1.63053
57.7406
58.7305
61.2179
65.2826
71.0123
78.6177
88.3542
100.369
114.5
129.912
144.54
153.832
152.093
138.021
116.412
94.2371
74.7008
58.4299
45.3859
35.2331
27.4526
21.3225
16.5622
13.1028
10.5946
8.67743
7.17854
6.02006
5.13717
4.46628
3.95711
3.57442
3.29057
3.07985
2.91782
2.77818
2.62822
2.42246
2.09435
1.56602
55.5627
56.4831
58.8258
62.7113
68.3127
75.9951
86.2887
99.8079
117.076
138.002
159.952
176.357
175.171
153.431
123.579
96.3857
73.7246
55.7399
42.095
32.0362
24.8011
18.8832
14.1608
10.9438
8.67131
6.93526
5.62714
4.67272
3.97668
3.46587
3.09682
2.83917
2.66824
2.56182
2.50353
2.47545
2.45454
2.3997
2.22945
1.78695
52.3829
53.1829
55.2571
58.7668
63.9784
71.4378
82.042
97.1558
118.77
149.681
182.215
217.6
220.967
184.103
140.038
106.506
78.1313
56.6154
41.2309
30.3502
18.3893
12.7734
10.1576
8.72271
7.10475
5.51449
4.25061
3.30115
2.57151
2.00664
1.57732
1.26411
1.04666
0.90633
0.839881
0.844225
0.917196
1.03992
1.14584
1.0488
48.3316
48.9472
50.5869
53.4298
57.793
64.3303
74.2062
89.4276
113.462
153.788
219.932
295.242
313.737
212.518
143.2
104.404
69.0115
45.402
30.4328
20.9263
13.6169
-3.79498
-2.05792
0.643154
1.12176
0.875473
0.614491
0.362209
0.0934693
-0.161107
-0.380609
-0.551278
-0.674668
-0.751672
-0.766183
-0.696291
-0.506735
-0.161894
0.328525
0.712855
43.6199
43.9833
45.0051
46.8396
49.7656
54.3684
61.752
74.0274
95.4881
145.295
231.719
413.324
562.704
190.803
148.048
102.603
56.172
30.876
16.9777
8.51554
-2.57565
-0.567993
1.36986
0.361285
-1.15056
-2.06475
-2.62492
-3.09859
-3.52581
-3.88817
-4.18116
-4.42417
-4.5961
-4.69937
-4.7088
-4.57965
-4.23677
-3.54663
-2.2676
0.0102378
38.5435
38.604
38.8576
39.3883
40.335
41.9797
44.8433
49.8974
58.9724
95.7899
169.114
398.355
1883.56
211.509
74.6803
20.3735
4.03054
-2.65386
-12.0688
-22.5054
10.8871
9.99758
3.71493
-0.139162
-1.87538
-2.81852
-3.51003
-4.05018
-4.45799
-4.75836
-4.96741
-5.10146
-5.16058
-5.11606
-4.93433
-4.55512
-3.88354
-2.7782
-1.13868
33.473
33.2072
32.6273
31.7248
30.4503
28.6804
26.1489
22.2258
15.2324
18.7832
7.67149
-130.991
-907.015
-940.809
-276.831
-86.8514
-42.2607
-26.8844
-19.8814
-14.233
-3.11607
-6.77507
-6.1304
-5.71243
-5.29511
-4.62381
-3.91681
-3.33954
-2.90062
-2.56069
-2.28992
-2.05804
-1.87183
-1.70431
-1.52364
-1.30495
-1.02218
-0.663356
-0.287877
-0.260422
28.8073
28.2325
26.868
24.6216
21.2914
16.4526
9.33065
-1.52206
-18.9446
-38.7061
-100.13
-224.842
-411.612
-437.088
-275.984
-150.669
-87.6079
-55.1137
-37.0182
-25.2516
-16.1038
-10.9282
-6.81407
-3.8579
-2.29034
-1.46642
-0.917849
-0.535158
-0.293179
-0.151059
-0.0673105
-0.0150817
0.0169134
0.0415222
0.0705554
0.107682
0.145122
0.150642
0.0250235
-0.479366
24.9252
24.0975
22.0935
18.7643
13.8287
6.73222
-3.45767
-18.2784
-40.3312
-74.1459
-121.541
-182.124
-238.054
-246.349
-199.5
-139.428
-94.1558
-65.177
-46.3249
-33.1793
-23.8406
-17.6741
-12.5547
-8.83221
-6.46404
-4.89921
-3.71804
-2.77837
-2.04014
-1.4638
-1.00692
-0.638862
-0.34306
-0.109978
0.068397
0.18768
0.231537
0.163071
-0.0874751
-0.625946
22.1446
21.1458
18.6955
14.6283
8.64821
0.192791
-11.5845
-27.8359
-50.0151
-79.6349
-116.81
-157.62
-190.383
-197.532
-173.295
-133.547
-97.2091
-70.6006
-51.8133
-38.0445
-27.7532
-20.1216
-14.1946
-9.75319
-6.5738
-4.31323
-2.66581
-1.44706
-0.552097
0.0954667
0.558638
0.884448
1.1037
1.23405
1.28506
1.25283
1.1196
0.850785
0.390422
-0.343646
20.6939
19.6088
16.932
12.4956
6.01083
-3.06125
-15.4719
-32.1031
-53.8051
-80.9393
-112.335
-143.783
-167.305
-173.328
-157.973
-128.799
-98.1044
-73.0497
-54.3094
-40.2479
-29.5548
-21.4817
-15.4179
-10.89
-7.57689
-5.1942
-3.47186
-2.20431
-1.26162
-0.560008
-0.0391913
0.344517
0.619242
0.799922
0.891076
0.886137
0.767239
0.505884
0.0691348
-0.555109
57.1924
58.0786
60.3062
63.9122
68.9071
75.3709
83.3677
92.7958
103.235
113.734
122.577
127.154
125.012
115.302
100.085
83.1992
67.3727
53.6699
42.3284
33.2433
26.1266
20.5899
16.2663
12.8997
10.31
8.31675
6.77391
5.58737
4.691
4.01349
3.50282
3.12084
2.83843
2.62938
2.46828
2.33092
2.18979
1.99727
1.70858
1.25434
56.1239
56.9763
59.1408
62.6741
67.6267
74.1487
82.42
92.5164
104.243
116.853
128.659
135.613
133.618
121.274
102.594
83.3739
66.2733
51.9304
40.4131
31.4676
24.673
19.3518
15.1539
11.9412
9.52149
7.65037
6.1804
5.03745
4.17575
3.51794
3.01632
2.63838
2.35775
2.1511
2.00105
1.88766
1.78596
1.66917
1.48443
1.1713
54.0178
54.8011
56.8218
60.172
64.9734
71.5047
80.1728
91.4373
105.661
122.683
140.276
153.291
151.563
132.937
107.675
84.4155
64.7227
48.9882
37.0777
28.4484
22.7071
17.8404
13.3388
10.0531
7.80543
6.13798
4.8622
3.90167
3.17571
2.63775
2.23947
1.94846
1.74622
1.61393
1.54301
1.52377
1.54779
1.59515
1.60868
1.43761
50.9515
51.6187
53.3824
56.3695
60.7803
67.0439
75.8706
88.3364
105.997
131.036
160.198
189.675
191.819
159.716
122.347
93.4813
68.4426
49.5339
36.1215
26.9345
18.6001
16.1075
11.0878
7.37784
4.90934
3.10692
1.79035
0.860035
0.199389
-0.279676
-0.637593
-0.899296
-1.07536
-1.18033
-1.20451
-1.13182
-0.938797
-0.602113
-0.121131
0.395515
47.0546
47.5512
48.9112
51.2775
54.8955
60.2857
68.3789
80.7845
100.295
135.764
191.367
255.95
271.215
181.628
125.49
91.3896
59.2465
38.3538
25.4494
17.8742
15.4274
7.94895
5.4369
3.68295
1.96298
0.509431
-0.60551
-1.48236
-2.15871
-2.67932
-3.0882
-3.39121
-3.60394
-3.7426
-3.78381
-3.68222
-3.37384
-2.74816
-1.68022
-0.303085
42.5395
42.8036
43.5997
45.049
47.3681
51.0216
56.8922
66.6889
83.9313
127.59
204.403
369.315
506.591
154.294
140.091
94.1995
48.4122
24.7393
12.4444
5.40424
-2.66162
-30.2943
-27.5712
-25.9191
-25.1325
-24.1565
-23.1614
-22.3465
-21.732
-21.2414
-20.8157
-20.4465
-20.0825
-19.6748
-19.1767
-18.5089
-17.5291
-15.9593
-13.1871
-7.69385
37.6755
37.6736
37.7767
38.0559
38.6147
39.6661
41.6223
45.2707
52.1503
84.5357
151.36
371.843
1815.93
236.426
76.4384
15.0651
-2.40055
-9.08434
-14.377
-18.8307
-3.22066
-4.88598
-9.15326
-11.6025
-12.6459
-13.1739
-13.5475
-13.8324
-14.0162
-14.1027
-14.1241
-14.0438
-13.8645
-13.5616
-13.067
-12.2637
-10.9232
-8.62302
-4.74314
32.8379
32.5411
31.8971
30.8973
29.4899
27.5576
24.8668
20.8917
14.2824
17.434
8.71499
-111.506
-802.708
-845.368
-241.766
-78.7464
-42.9885
-30.2637
-23.9453
-18.4939
-12.5177
-21.9541
-17.5518
-13.4539
-11.2489
-9.75921
-8.60634
-7.76336
-7.17441
-6.75886
-6.45459
-6.21109
-6.00867
-5.80789
-5.56555
-5.22923
-4.73106
-3.97136
-2.84951
-1.46036
28.3888
27.8151
26.468
24.2683
21.0415
16.4252
9.76601
-0.136345
-15.5877
-32.9976
-85.9404
-193.549
-356.409
-378.715
-239.599
-132.962
-79.5738
-51.6976
-35.9653
-25.9632
-19.8799
-18.6273
-12.3954
-7.37117
-4.86736
-3.60617
-2.79529
-2.24157
-1.88784
-1.67038
-1.53154
-1.43645
-1.36493
-1.29162
-1.19937
-1.07036
-0.886531
-0.63842
-0.37059
-0.338797
24.6843
23.8855
21.9647
18.7966
14.1471
7.54755
-1.7828
-15.117
-34.5888
-63.8784
-104.394
-155.946
-203.595
-211.486
-172.903
-122.714
-84.4301
-59.5322
-43.1353
-31.7392
-23.9576
-19.3885
-14.3271
-10.2456
-7.6093
-5.8611
-4.54273
-3.50227
-2.69373
-2.07062
-1.58479
-1.19909
-0.893711
-0.646666
-0.445362
-0.282637
-0.159738
-0.0937631
-0.139458
-0.440014
22.0287
21.0791
18.7572
14.9269
9.34551
1.54127
-9.19118
-23.797
-43.4461
-69.33
-101.466
-136.517
-164.787
-171.371
-151.323
-117.93
-86.9997
-64.0068
-47.5662
-35.4593
-26.4615
-19.8814
-14.6197
-10.4284
-7.30056
-5.03
-3.35476
-2.10177
-1.17037
-0.486627
0.0114994
0.371188
0.624414
0.79315
0.889902
0.91725
0.866396
0.712571
0.40523
-0.167082
20.642
19.6161
17.0892
12.9252
6.88957
-1.46763
-12.7692
-27.7328
-47.0244
-70.8784
-98.2369
-125.508
-145.961
-151.489
-138.748
-114.162
-87.9253
-66.1955
-49.7441
-37.3135
-27.841
-20.6933
-15.2792
-11.1045
-7.94426
-5.61586
-3.90217
-2.62054
-1.65223
-0.920384
-0.368857
0.0444446
0.34828
0.560299
0.68827
0.731111
0.677187
0.503904
0.178732
-0.344906
55.3129
56.0531
57.9263
60.9501
65.1048
70.4188
76.8979
84.3991
92.5148
100.422
106.741
109.543
106.981
98.4881
85.7211
71.6121
58.2901
46.6414
36.9035
29.0148
22.7461
17.8172
13.9837
11.0269
8.75132
6.98543
5.60599
4.53612
3.73366
3.11891
2.65101
2.29661
2.03427
1.84123
1.69525
1.57677
1.4835
1.32731
1.12503
0.840041
54.2851
54.9912
56.7998
59.744
63.8348
69.1539
75.7925
83.7351
92.7262
102.057
110.266
114.743
112.257
101.902
86.7389
71.0668
56.9036
44.8411
35.0184
27.236
21.1179
16.3568
12.6695
9.86668
7.73355
6.0665
4.74273
3.6785
2.93798
2.35105
1.89407
1.55144
1.297
1.10649
0.975202
0.889689
0.811761
0.772923
0.70997
0.627526
52.2634
52.9016
54.5679
57.3238
61.2357
66.4817
73.3196
82.0093
92.679
105.009
117.283
125.49
122.967
108.091
88.3907
70.0996
54.3111
41.3726
31.3672
23.7817
17.8492
13.5973
10.1173
7.47944
5.55427
4.07619
2.95057
2.11225
1.41217
0.91947
0.569368
0.321258
0.156945
0.0666931
0.0346215
0.0616406
0.14431
0.292099
0.48232
0.673511
49.3262
49.8567
51.2792
53.6853
57.2015
62.1187
68.9135
78.2758
91.1173
108.497
132.227
152.787
153.038
128.128
99.3171
76.3214
56.0789
40.6204
29.4961
21.6246
11.1178
8.4264
5.49164
2.92323
1.04745
-0.467778
-1.68334
-2.56656
-3.19478
-3.62113
-3.91718
-4.11066
-4.21291
-4.23785
-4.17591
-4.00108
-3.68359
-3.15974
-2.3352
-1.01382
45.6105
45.9825
47.0357
48.8717
51.6519
55.7358
61.7511
70.7572
84.5111
112.548
151.512
196.515
204.278
136.019
96.5885
69.4344
43.7822
27.1897
16.8867
10.8775
9.44609
-2.3675
-4.00419
-5.12276
-6.49123
-7.50975
-8.34055
-9.11504
-9.59418
-9.8511
-10.0015
-10.0807
-10.0735
-9.98333
-9.81661
-9.49655
-8.93891
-7.9737
-6.31034
-3.46315
41.3172
41.4822
42.0315
43.0509
44.6833
47.2387
51.3042
57.9882
69.4998
102.881
160.916
285.428
388.976
96.745
110.306
56.4549
19.693
1.59911
-7.49985
-11.9349
-9.30951
-22.7164
-25.2812
-30.1281
-32.0187
-32.3175
-31.9742
-31.323
-30.7021
-30.112
-29.4891
-28.8123
-28.1145
-27.3721
-26.5091
-25.4468
-24.0267
-21.8889
-18.201
-10.9049
36.7166
36.6387
36.5777
36.576
36.6893
37.0417
37.877
39.6532
43.2435
67.4855
118.396
300.708
1643.75
250.748
-18.0676
-60.187
-68.2069
-69.1554
-67.6015
-62.9784
-36.3156
-35.3318
-37.4665
-37.7872
-36.972
-35.9004
-34.8498
-33.8822
-32.9547
-32.0303
-31.1243
-30.1987
-29.2026
-28.1348
-26.8885
-25.3012
-23.009
-19.1875
-11.7148
32.1411
31.807
31.0928
29.9825
28.4174
26.2786
23.3416
19.149
12.6393
14.2147
6.64567
-86.3479
-645.062
-644.917
-194.32
-82.4063
-54.8622
-43.0947
-36.5
-30.8097
-27.7152
-30.6526
-26.4061
-22.362
-20.0098
-18.3429
-17.0538
-16.0731
-15.3225
-14.7294
-14.2341
-13.797
-13.4001
-12.959
-12.4563
-11.8363
-10.9999
-9.77345
-7.83857
-4.5569
27.9368
27.3686
26.0404
23.8899
20.7728
16.3889
10.2137
1.33507
-11.8745
-26.6002
-68.6532
-150.58
-273.579
-291.964
-190.301
-111.563
-70.3006
-47.5609
-34.207
-25.7822
-23.0392
-18.2043
-14.589
-11.5695
-9.7398
-8.55154
-7.65074
-6.93907
-6.37919
-5.93625
-5.57472
-5.26675
-4.99803
-4.73742
-4.46258
-4.14725
-3.7526
-3.22655
-2.50409
-1.52448
24.4392
23.6768
21.8471
18.8561
14.521
8.4661
0.081101
-11.598
-28.133
-52.1514
-84.396
-124.182
-160.211
-167.483
-139.803
-102.239
-72.3293
-51.982
-38.0884
-28.2153
-21.3173
-17.5
-14.0438
-11.1076
-8.9113
-7.28283
-6.01535
-5.00627
-4.20537
-3.57001
-3.06114
-2.64652
-2.30685
-2.01832
-1.76547
-1.53618
-1.3236
-1.12546
-0.951564
-0.823539
21.9308
21.0373
18.8595
15.2929
10.1538
3.07071
-6.50363
-19.2773
-36.0785
-57.6765
-83.8846
-111.927
-134.477
-140.057
-125.198
-99.6416
-75.0787
-56.1705
-42.25
-31.8069
-23.9413
-18.2119
-13.8224
-10.3673
-7.73365
-5.76938
-4.29394
-3.17279
-2.31824
-1.66815
-1.17352
-0.797653
-0.514456
-0.30495
-0.157539
-0.0676697
-0.0398437
-0.0876319
-0.233366
-0.496423
20.6203
19.661
17.3028
13.4427
7.90647
0.343056
-9.72766
-22.8364
-39.4314
-59.5746
-82.2915
-104.648
-121.349
-126.117
-116.468
-97.1
-76.0563
-58.1036
-44.1504
-33.4207
-25.1496
-18.8759
-14.1647
-10.5808
-7.85899
-5.81243
-4.2738
-3.10622
-2.21372
-1.53054
-1.0087
-0.611488
-0.313193
-0.0976657
0.0436226
0.112068
0.0995025
-0.00979698
-0.229611
-0.542602
53.3351
53.9279
55.4426
57.8752
61.179
65.335
70.2941
75.8787
81.7
87.0694
90.9401
91.9807
88.9938
81.7191
71.399
60.0897
49.3291
39.7963
31.7033
25.0404
19.6647
15.3972
12.0848
9.5851
7.68168
6.18957
5.0102
4.09171
3.39276
2.85938
2.45364
2.14739
1.91804
1.74466
1.60912
1.49398
1.37931
1.2293
1.01657
0.702519
52.352
52.9108
54.3605
56.7076
59.9272
64.0363
69.0411
74.8426
81.1356
87.2765
92.1203
93.8984
90.7416
82.2824
70.6636
58.6516
47.6127
37.9878
29.9531
23.4372
18.202
14.0352
10.8438
8.54262
6.82978
5.48589
4.42055
3.58438
2.94734
2.45039
2.06238
1.76274
1.53353
1.3586
1.2271
1.12756
1.04152
0.953083
0.825084
0.620993
50.4222
50.9141
52.2255
54.3809
57.3957
61.351
66.3586
72.4845
79.6312
87.3383
94.3713
97.982
94.1188
82.3599
67.9934
54.8574
43.3136
33.4296
25.4099
19.044
13.9168
9.93022
7.51051
5.84036
4.42959
3.2699
2.40034
1.77631
1.32227
1.00487
0.785369
0.63778
0.547855
0.504325
0.499834
0.534128
0.605123
0.704344
0.793339
0.761932
47.6275
48.017
49.0994
50.9217
53.5379
57.1044
61.8659
68.1299
76.1975
86.1973
96.5853
104.197
98.6259
79.8423
62.2518
48.6858
36.8333
27.2018
19.8148
13.8377
7.75271
1.64375
1.83563
2.3092
1.768
0.911505
0.152373
-0.443252
-0.899012
-1.24107
-1.49626
-1.67588
-1.78383
-1.82614
-1.79715
-1.6792
-1.45109
-1.08166
-0.557229
0.0655816
44.1048
44.3521
45.0985
46.406
48.3433
51.1152
55.0432
60.6118
68.44
87.4765
106.916
126.389
121.039
81.2336
58.4798
44.4928
28.7036
17.45
10.2156
5.27054
0.232577
-13.6344
-11.1416
-8.27066
-7.01472
-6.38695
-5.97926
-5.71046
-5.50895
-5.35481
-5.24118
-5.14701
-5.05271
-4.94195
-4.77631
-4.50589
-4.06259
-3.33723
-2.21774
-0.749177
40.0508
40.1168
40.419
41.0091
41.9517
43.4037
45.6481
49.1561
54.6832
75.2537
100.737
144.109
164.158
25.3071
22.1198
4.58763
-5.20192
-9.30895
-12.1099
-14.2513
-20.3135
-12.5699
-14.5296
-16.9462
-17.8237
-17.966
-17.8344
-17.5701
-17.2528
-16.8936
-16.4881
-16.0299
-15.5533
-15.0582
-14.4862
-13.7749
-12.8103
-11.3558
-8.97175
-4.92664
35.7237
35.579
35.3545
35.0713
34.7376
34.3861
34.0764
33.8905
33.8872
47.4228
58.8249
128.605
166.866
-715.379
-136.346
-92.8872
-65.0831
-57.9384
-53.5084
-50.8758
-68.5346
-39.7538
-37.8136
-35.9454
-34.1287
-32.3154
-30.6896
-29.2872
-28.0696
-26.9792
-25.9728
-25.0291
-24.1254
-23.2002
-22.214
-21.0956
-19.7262
-17.8319
-14.8291
-9.24197
31.4317
31.0662
30.2841
29.0637
27.343
24.9945
21.7851
17.2765
10.5816
9.52822
-10.8336
-77.137
-299.315
-256.713
-111.157
-62.2508
-39.0021
-27.8996
-21.9233
-17.3502
-9.24908
5.73466
2.40376
-1.49373
-3.22391
-4.08628
-4.66476
-5.07315
-5.3467
-5.51807
-5.61175
-5.65019
-5.62869
-5.52398
-5.32165
-5.00055
-4.49934
-3.70523
-2.48067
-0.902628
27.4912
26.9276
25.6232
23.5276
20.5262
16.3761
10.6602
2.65626
-8.97922
-26.9977
-49.4734
-102.185
-172.614
-187.228
-131.976
-84.4481
-56.0769
-38.5683
-27.6151
-19.8438
-9.89106
-1.10705
-2.32483
-3.91729
-4.03298
-3.64464
-3.24241
-2.8854
-2.56734
-2.29249
-2.06027
-1.86216
-1.69232
-1.53988
-1.37632
-1.18302
-0.939193
-0.617791
-0.235454
0.0183193
24.212
23.4888
21.7579
18.9529
14.9412
9.44056
2.00775
-8.02378
-21.6195
-40.0218
-63.9075
-91.4579
-115.46
-121.435
-105.114
-80.3704
-58.9045
-43.2181
-31.8992
-23.2458
-15.9681
-11.1304
-8.49242
-6.59531
-4.88481
-3.47933
-2.42683
-1.64885
-1.0653
-0.625642
-0.294314
-0.0432141
0.145092
0.288199
0.40422
0.500009
0.575191
0.615778
0.566305
0.253278
21.8653
21.0324
19.0045
15.7119
11.0284
4.68132
-3.71968
-14.6477
-28.5844
-45.8154
-65.8906
-86.7618
-103.093
-107.751
-98.2671
-80.58
-62.5458
-47.7936
-36.4168
-27.5383
-20.4806
-15.0483
-10.922
-7.90396
-5.64997
-3.93818
-2.64139
-1.65744
-0.906222
-0.331549
0.105651
0.434374
0.675421
0.844092
0.950187
0.996869
0.976914
0.868351
0.623235
0.137571
20.6382
19.7484
17.5672
14.0242
9.00407
2.25202
-6.5711
-17.8085
-31.6888
-48.086
-66.0868
-83.4325
-96.2336
-100.179
-93.6056
-79.6034
-63.6773
-49.5009
-38.0658
-29.0115
-21.8334
-16.2204
-11.9381
-8.73262
-6.30414
-4.42946
-2.97958
-1.86428
-1.0092
-0.355588
0.140295
0.510877
0.779948
0.963186
1.06892
1.09887
1.04361
0.8821
0.576287
0.0595618
51.3942
51.8499
53.0274
54.9086
57.4222
60.5137
64.0943
67.9711
71.7939
75.0158
76.8913
76.5686
73.374
67.2795
59.156
50.3424
41.8702
34.2467
27.6673
22.1738
17.7051
14.1544
11.4059
9.31453
7.69009
6.38891
5.34248
4.51295
3.86484
3.35948
2.96422
2.65393
2.40773
2.2068
2.03369
1.87019
1.6924
1.46844
1.1586
0.710961
50.4566
50.8796
51.9926
53.7864
56.2007
59.2049
62.7418
66.661
70.6511
74.1732
76.4091
76.2969
72.8891
66.1844
57.5152
48.5181
40.0849
32.5556
26.1192
20.8161
16.5475
13.1955
10.6726
8.79156
7.31825
6.12232
5.15471
4.37977
3.7616
3.26655
2.86753
2.54482
2.28252
2.06573
1.88062
1.71355
1.54443
1.34505
1.07204
0.669191
48.62
48.9792
49.9575
51.5609
53.7541
56.5441
59.9333
63.8554
68.0884
72.1358
75.0561
75.3111
71.1607
62.814
53.078
44.0474
35.9153
28.63
22.4575
17.4617
13.5073
10.5585
8.65635
7.19259
5.86526
4.72998
3.84413
3.17703
2.6725
2.28877
1.99867
1.78134
1.62124
1.50579
1.42463
1.36935
1.3265
1.26962
1.14051
0.813415
45.9691
46.2338
46.9998
48.285
50.0879
52.4528
55.4525
59.1315
63.4224