/*--------------------------------*- C++ -*----------------------------------*\
| =========                 |                                                 |
| \\      /  F ield         | OpenFOAM: The Open Source CFD Toolbox           |
|  \\    /   O peration     | Version:  2306                                  |
|   \\  /    A nd           | Website:  www.openfoam.com                      |
|    \\/     M anipulation  |                                                 |
\*---------------------------------------------------------------------------*/
FoamFile
{
    version     2.0;
    format      ascii;
    arch        "LSB;label=32;scalar=64";
    class       surfaceScalarField;
    location    "0.2";
    object      phi;
}
// * * * * * * * * * * * * * * * * * * * * * * * * * * * * * * * * * * * * * //

dimensions      [0 3 -1 0 0 0 0];

oriented        oriented;

internalField   nonuniform List<scalar> 
338621
(
24.995
0.00248193
0.00114485
24.9874
0.00516203
0.00244236
24.9752
0.00811754
0.00396315
24.958
0.0112056
0.00583776
24.9348
0.0145336
0.00836846
24.9023
0.0205125
0.0117135
24.8561
0.0299293
0.0159878
24.7937
0.0404108
0.0215024
24.7327
0.0320643
0.028496
24.6905
0.00471822
0.0368881
24.6632
-0.019737
0.0465012
24.59
0.015779
0.0568526
24.6188
-0.0969499
0.0675933
24.7489
-0.208352
0.0777235
24.7898
-0.128085
0.086631
24.8209
-0.125571
0.0939719
24.8483
-0.127549
0.0997665
24.8701
-0.126506
0.104422
24.8882
-0.126243
0.107954
24.9135
-0.136053
0.110621
24.9421
-0.141085
0.112363
24.9638
-0.135317
0.113586
24.9803
-0.130976
0.114457
24.9937
-0.128396
0.114949
25.005
-0.126617
0.115294
25.0145
-0.125056
0.115571
25.0228
-0.12408
0.115766
25.03
-0.123177
0.115918
25.0364
-0.122545
0.11615
25.0425
-0.122475
0.116449
25.0484
-0.122739
0.116789
25.0546
-0.123353
0.117121
25.0613
-0.124227
0.117515
25.0688
-0.125314
0.117896
25.0772
-0.126558
0.118153
25.0871
-0.128164
0.118241
25.0986
-0.129504
0.118036
25.1117
-0.130631
0.117532
25.1265
-0.131456
0.116608
-0.13212
0.114954
24.995
0.00494321
0.00112379
24.9872
0.0104507
0.00236872
24.9746
0.0167427
0.00387706
24.9573
0.0226381
0.00573811
24.9341
0.029255
0.00824945
24.9048
0.0380627
0.0114925
24.8696
0.0490638
0.0158225
24.8245
0.0637207
0.0214365
24.7607
0.0667399
0.0286277
24.6871
0.0404676
0.0374587
24.6453
-0.0263071
0.0479474
24.6328
-0.0313501
0.0591565
24.6717
-0.207715
0.0715317
24.7553
-0.375271
0.0829052
24.8347
-0.300333
0.0924687
24.9017
-0.293062
0.100077
24.9525
-0.284562
0.105974
24.9931
-0.277864
0.110576
25.0365
-0.283887
0.114061
25.0691
-0.285227
0.116514
25.0882
-0.278384
0.118181
25.1015
-0.267894
0.119247
25.1103
-0.259848
0.120075
25.117
-0.255814
0.120655
25.1219
-0.252659
0.121102
25.1257
-0.250283
0.121427
25.1281
-0.248213
0.121729
25.1302
-0.247294
0.122002
25.1324
-0.247003
0.122314
25.1343
-0.247071
0.122673
25.1365
-0.248005
0.12307
25.1389
-0.249298
0.123484
25.1425
-0.251653
0.123906
25.1471
-0.254194
0.124272
25.1531
-0.257046
0.124507
25.1606
-0.260277
0.12458
25.1699
-0.263146
0.124318
25.1812
-0.265626
0.123746
25.1947
-0.267666
0.122691
-0.268133
0.120931
24.9953
0.00705453
0.00107475
24.9876
0.0157988
0.00226878
24.9757
0.0249115
0.00368359
24.9577
0.0349091
0.00554192
24.9335
0.0453595
0.00797634
24.9025
0.0576468
0.0111857
24.8629
0.0727875
0.0155717
24.8143
0.0907013
0.0213351
24.7461
0.105643
0.0289751
24.649
0.0984615
0.0388232
24.5735
0.00532372
0.0509797
-0.00617665
0.00476711
-0.00605984
24.6713
-0.0387977
0.0653163
-0.0585023
-0.0387711
-0.0585563
24.5639
-0.0110373
0.0788899
-0.0952308
0.0209583
-0.0940487
24.7361
-0.181967
0.0919027
-0.123605
-0.212124
-0.121812
24.8284
-0.128613
0.101763
-0.121195
-0.126331
-0.118489
24.8878
-0.117769
0.109187
-0.115871
-0.114874
-0.113343
24.9402
-0.114095
0.114856
-0.11442
-0.111788
-0.111622
25.0043
-0.116902
0.119255
-0.115976
-0.114584
-0.11384
25.0457
-0.113623
0.122532
-0.112324
-0.111471
-0.110379
25.0701
-0.110068
0.124652
-0.109094
-0.107977
-0.10706
25.0872
-0.421355
0.125866
25.1001
-0.407421
0.126609
25.1077
-0.394898
0.127411
25.1133
-0.389626
0.128246
25.1175
-0.385935
0.129033
25.1203
-0.382823
0.129701
25.1219
-0.380107
0.130278
25.1232
-0.37935
0.1308
25.1236
-0.378713
0.131286
25.1245
-0.379687
0.131748
25.1253
-0.381013
0.132177
25.1269
-0.38343
0.132558
25.1291
-0.386644
0.132812
25.1326
-0.390756
0.133043
25.1373
-0.394831
0.133024
25.1439
-0.399609
0.132816
25.1527
-0.404242
0.132239
25.1639
-0.408111
0.131316
25.1772
-0.410898
0.129899
-0.412156
0.127822
24.9956
0.00941853
0.0010001
24.9889
0.0203744
0.00211539
24.9771
0.0331657
0.00341447
24.9603
0.0464177
0.00519
24.9359
0.0621973
0.00747715
24.9016
0.0811059
0.0105807
24.8564
0.102928
0.0148637
24.7988
0.127464
0.0206692
24.7327
0.142811
0.0286541
6.1423
0.0367934
0.0395294
0.0538452
0.0374194
0.0531495
6.16434
6.14143
6.16219
6.12482
0.0169864
0.00580755
-6.11189
6.09988
-0.0345179
0.00773157
-6.10391
6.12544
-0.0422908
0.00973108
-6.11771
6.14458
-0.220584
0.0117611
-6.16329
6.17751
-0.156041
0.0132066
-6.19078
6.20142
-0.142536
0.0141223
-6.21267
6.22687
-0.143172
0.0148787
-6.23869
6.24572
-0.139442
0.015509
-6.25133
6.25631
-0.134588
0.0159825
-6.2605
6.26429
-0.130188
0.0163378
25.0973
-0.143777
0.13455
-0.145028
-0.141374
-0.142756
-6.26768
-6.27227
-6.26793
-6.27236
25.1023
-0.546968
0.134624
25.1041
-0.532726
0.13594
25.1059
-0.528766
0.137413
25.1055
-0.524254
0.138717
25.1034
-0.520539
0.139822
25.1009
-0.51841
0.140767
25.0973
-0.517295
0.141569
25.0929
-0.516608
0.142229
25.0881
-0.517639
0.142743
25.0834
-0.519406
0.143092
25.0789
-0.522117
0.143253
25.0747
-0.525661
0.143153
25.0718
-0.530694
0.142907
25.0704
-0.535768
0.142267
25.0709
-0.541411
0.141321
25.0739
-0.547145
0.139902
25.0798
-0.551967
0.138002
25.0896
-0.556363
0.135602
-0.557764
0.132596
24.9973
0.0100721
0.000898694
24.9913
0.0243672
0.00190144
24.9816
0.0398012
0.00306085
24.9662
0.057099
0.00465486
24.9434
0.0781855
0.00670506
24.9101
0.104757
0.00949906
24.8604
0.139135
0.0133555
24.7865
0.182439
0.0187747
6.17164
0.231374
0.0262911
6.16434
6.17126
6.1643
6.15563
0.0488323
0.00396354
6.13044
0.00564946
-6.15822
0.0198712
0.0117416
0.0114752
0.0201346
-0.0410999
-6.07787
6.0439
0.00779479
-0.00249612
0.00390987
0.00342159
-0.00221924
0.023579
-6.04358
6.06195
0.0102546
0.0289238
-0.0404012
-0.0406394
-0.0193253
0.0428708
-6.11434
6.13962
0.0129472
-0.0521142
-0.0668562
-0.104779
-0.0525583
0.238133
-6.17214
6.18417
0.0141282
-0.0505771
-0.0545659
-0.0538441
-0.0510275
0.183867
-6.19585
6.20921
0.014752
-0.0507205
-0.0501222
-0.0498875
-0.0509265
0.173544
-6.22264
6.23429
0.0153596
-0.0488867
-0.0489212
-0.0487163
-0.0490823
0.168608
-6.24371
6.25071
0.0159236
-0.0462784
-0.0462476
-0.0460416
-0.046475
0.162132
-6.25682
6.26111
0.016431
-0.0438641
-0.0441122
-0.0439091
-0.0440682
0.155246
-6.2649
6.26672
0.0169647
-0.0418441
-0.04231
-0.0421003
-0.0420538
0.149529
-6.26946
6.27139
-0.16395
0.0182501
25.0435
-0.644594
0.131501
-6.2718
-6.26428
-6.27253
-6.2687
25.0172
-0.639903
0.13347
24.9883
-0.635537
0.135616
24.9589
-0.631952
0.137105
24.9306
-0.630324
0.138132
24.9031
-0.629707
0.138749
24.8766
-0.62962
0.138889
24.8516
-0.630193
0.138507
24.8277
-0.631252
0.137575
24.8053
-0.633098
0.136106
24.7847
-0.635719
0.134125
24.7664
-0.638998
0.131641
24.7501
-0.643209
0.128806
24.7371
-0.648269
0.12555
24.7275
-0.653766
0.121947
24.722
-0.65961
0.117975
24.7215
-0.665134
0.113626
24.7262
-0.669972
0.108945
-0.673601
0.104003
24.9999
0.00871069
0.000771042
24.9965
0.0260524
0.00162629
24.989
0.0446953
0.00262064
24.9772
0.0649147
0.00390315
24.9596
0.0901357
0.00560784
24.9325
0.123898
0.00786886
24.8894
0.171265
0.0109246
24.817
0.23956
0.0152408
6.17078
0.345219
0.0211191
6.17029
6.17079
6.17012
-0.0647553
6.14519
0.0871684
0.00318593
-0.0194602
-1.52763
1.5225
0.0239921
0.000603364
-0.0190492
-1.50436
1.49229
0.0303696
0.000759499
-1.46898
0.0525843
1.47895
-0.0637112
0.00116777
-1.53048
0.0847303
1.53915
-0.0947456
0.00134981
-1.53736
0.0611868
-0.064824
0.00166507
1.53933
-1.54852
0.0591812
-0.0636816
0.00198023
1.55104
0.0566422
-1.55664
1.55804
-0.0603467
0.00230626
0.0525775
-1.56075
1.5612
-0.0556176
0.00258773
0.0497663
-1.56151
1.56147
-0.0525098
0.00278477
0.0473751
-1.56042
1.55987
-0.0497586
0.00293577
-1.55221
0.18171
6.14838
-0.182656
0.0252961
-1.53496
-1.55217
-1.5334
23.864
-0.731631
0.0689186
-6.09363
-5.80373
-6.1245
-5.82404
23.8725
-0.717932
0.0695689
23.8782
-0.710917
0.0696971
23.8839
-0.706314
0.0686394
23.8904
-0.70374
0.0668633
23.8985
-0.702429
0.0646942
23.9085
-0.701978
0.0622927
23.9207
-0.702153
0.0597751
23.9352
-0.702912
0.0572344
23.9516
-0.704242
0.0547267
23.9697
-0.706158
0.0522613
23.9898
-0.708836
0.0497837
24.0114
-0.712141
0.0473018
24.0344
-0.715953
0.0446873
24.059
-0.720239
0.0418681
24.085
-0.724321
0.0387618
24.1121
-0.727546
0.0352731
24.1396
-0.72874
0.0313024
-0.725322
0.0267951
25.003
0.00480955
0.000635031
25.0036
0.0241615
0.00131557
25.0007
0.0454531
0.0021032
24.995
0.0675868
0.003033
24.9861
0.0947486
0.00422858
24.9724
0.131801
0.00578567
24.9524
0.183512
0.00772845
24.9207
0.261023
0.0102303
6.21275
0.386504
0.0132101
6.22073
6.21242
6.22034
-0.105572
6.1972
0.119236
0.00189601
-0.0391129
-1.54185
1.53567
0.0449708
0.00031855
-0.0815902
-1.50614
1.48759
0.099884
0.000251872
0.00447581
-0.0747402
0.0749379
-0.00470323
2.97489e-05
-0.0214107
0.000451771
0.0209221
2.57226e-06
3.42207e-05
-0.212495
0.0121537
-0.0236054
0.000228871
0.223717
-1.19023
0.0621525
-0.0804948
-0.00475627
1.21333
0.0593472
-1.26324
1.27426
-0.0659682
-0.00440412
0.0590857
-1.30614
1.31623
-0.065502
-0.00366489
0.0562964
-1.34171
1.34947
-0.0608086
-0.00324365
0.0541189
-1.36929
1.37632
-0.0582026
-0.00295541
-1.41328
0.219302
5.86779
-0.228527
-0.0187134
-1.50191
-1.42255
-1.5021
24.0483
-0.671883
-0.11492
-5.90245
-6.16806
-5.75876
-6.16382
24.0938
-0.645898
-0.117545
24.1369
-0.634616
-0.119367
24.1787
-0.627484
-0.120643
24.2182
-0.62229
-0.120983
24.2552
-0.619155
-0.120258
24.2897
-0.61787
-0.118621
24.3217
-0.617992
-0.116146
24.3512
-0.619354
-0.113053
24.3782
-0.621748
-0.109535
24.4029
-0.625008
-0.105824
24.4252
-0.629063
-0.102052
24.4452
-0.633621
-0.0984795
24.4627
-0.638378
-0.0951602
24.4776
-0.642864
-0.0922755
24.49
-0.646792
-0.0899348
24.4999
-0.649161
-0.0882102
24.5073
-0.648927
-0.0872795
-0.64435
-0.0875987
25.0048
-0.000203356
0.000488383
25.01
0.0179038
0.000996377
25.015
0.0390101
0.00153542
25.0189
0.0615701
0.00213437
25.0206
0.0902471
0.00277349
25.0254
0.123542
0.00351485
25.037
0.167747
0.00421125
25.0621
0.231293
0.00466571
6.2736
0.331969
0.0045069
6.28137
6.27374
6.2835
-0.111497
6.28112
0.103513
0.000465924
-0.0445305
-1.57764
1.5793
0.0428617
1.59616e-05
-0.0840686
-1.59772
1.61269
-0.000248814
0.0693383
-0.0259862
-1.71289
1.75202
-0.00140835
0.0567609
-0.0211635
-0.0260973
-0.0212378
0.0995673
-1.71291
1.68324
-0.000889241
-0.069014
0.101634
-1.60979
-0.00147194
1.59935
-0.0897197
0.0780154
-1.58502
-0.00173873
1.58213
-0.0733864
0.0572692
-1.57748
1.57653
-0.0543894
-0.0019234
0.058243
-1.57465
1.5728
-0.05436
-0.00203031
0.0526839
-1.57223
1.57153
-0.0498899
-0.0020904
0.0490468
-1.57044
1.56991
-0.0463809
-0.0021331
-1.56758
0.184138
6.26395
-0.161705
-0.0173365
-1.56707
-1.56725
-1.56715
25.0702
-0.545264
-0.123019
-6.26779
-6.26758
-6.26994
-6.26852
25.074
-0.524867
-0.124829
25.0746
-0.508818
-0.126378
25.0744
-0.499591
-0.12772
25.0744
-0.493388
-0.128906
25.0745
-0.489422
-0.129812
25.0743
-0.487222
-0.130461
25.0734
-0.486292
-0.130744
25.0719
-0.487188
-0.130692
25.0694
-0.488917
-0.130325
25.0655
-0.491387
-0.129745
25.0604
-0.495029
-0.128861
25.0535
-0.498881
-0.127922
25.0446
-0.502539
-0.126863
25.034
-0.506447
-0.125855
25.0215
-0.509374
-0.124947
25.0075
-0.510922
-0.124175
24.9925
-0.510379
-0.123608
-0.507752
-0.123155
25.0057
-0.00524859
0.000299174
25.0141
0.00881073
0.000667429
25.0271
0.0250887
0.000985177
25.0383
0.0491282
0.00124984
25.0535
0.0737279
0.00141509
25.0767
0.0990908
0.00138013
25.1141
0.129498
0.000975559
25.1766
0.169186
-0.000266422
6.31987
0.231139
-0.00287015
6.31805
6.32411
6.31845
-0.0889088
6.33581
0.0736641
-0.000680814
-0.0333136
6.4121
0.0881854
-0.00168761
-0.0344964
-0.0334008
-0.0340068
-6.36338
-0.0335552
6.51598
0.0765039
-0.00372374
-0.0263232
-0.0333787
-0.0262232
-6.46929
-0.00750022
-6.54696
6.51379
-0.0049145
-0.00673318
0.0148962
-0.0077829
0.0451754
0.0453387
-6.53577
6.51418
-0.122693
-0.00966701
0.039095
0.0360553
0.0334252
0.054958
-6.44989
6.41252
-0.176915
-0.0116993
0.0554157
0.0573405
0.0582543
0.0563628
-6.37276
6.34081
-0.175411
-0.0129757
0.0551098
0.0552279
0.0536484
0.0467376
-6.32278
6.31157
-0.157825
-0.0139652
0.0458396
0.0454943
0.044926
0.0448627
-6.30279
6.29674
-0.157381
-0.0146852
0.0446537
0.0443799
0.0442134
0.041932
-6.29207
6.28648
-0.144842
-0.0151349
0.0414383
0.0414046
0.0407941
0.0390063
-6.28201
6.27638
-0.132805
-0.0154144
0.0385311
0.0384563
0.0378457
0.14423
-6.27468
6.27268
-0.12647
-0.015762
25.0716
-0.408733
-0.127871
-6.2701
-6.2702
-6.27038
-6.2696
25.0656
-0.390656
-0.128151
25.0639
-0.378831
-0.12832
25.0635
-0.370829
-0.128359
25.0639
-0.36552
-0.128272
25.0644
-0.361911
-0.128041
25.0649
-0.359955
-0.127688
25.065
-0.359225
-0.12724
25.0642
-0.359584
-0.126729
25.0623
-0.360839
-0.126184
25.0591
-0.362576
-0.125661
25.0545
-0.365327
-0.125117
25.048
-0.367831
-0.124554
25.0405
-0.370925
-0.124052
25.031
-0.373395
-0.123583
25.0198
-0.375061
-0.123117
25.0078
-0.376241
-0.122665
24.9957
-0.376023
-0.122234
-0.374741
-0.121777
25.0063
-0.0103729
0.000233572
25.0162
-0.00145932
0.000434951
25.0251
0.0157117
0.000552341
25.0416
0.0321414
0.000563248
25.0681
0.0470164
0.000322045
25.1013
0.0663404
-0.00029771
25.1484
0.0841307
-0.00153396
25.2143
0.107411
-0.00386835
25.3228
0.130977
-0.00799796
25.4274
0.144645
-0.0148957
-0.0615046
-0.0571299
-0.058499
-0.0568904
25.5751
0.132574
-0.0255614
-0.0610781
-0.0645984
-0.0615706
-0.0672288
25.71
0.0557961
-0.0407449
-0.0426216
-0.0289519
-0.0457596
-0.0324417
25.5898
-0.154957
-0.0587536
0.020561
0.123426
0.019218
0.170734
25.4991
-0.236738
-0.0774713
0.0829198
0.116628
0.0983358
0.107076
25.432
-0.248559
-0.0927695
0.082881
0.148436
0.0310825
0.146297
25.347
-0.354058
-0.10415
0.135634
0.138797
0.13344
0.135578
25.2629
-0.325179
-0.11181
0.129863
0.133703
0.12708
0.13063
25.1963
-0.336102
-0.116938
0.133227
0.130316
0.129705
0.126446
25.1527
-0.315217
-0.120211
0.123263
0.120134
0.119715
0.115874
25.1289
-0.295748
-0.122198
0.112535
0.112262
0.107724
0.109286
25.1099
-0.280301
-0.123268
0.107603
0.106814
0.10479
0.103362
25.0937
-0.268992
-0.123563
25.0849
-0.258261
-0.123537
25.0799
-0.250422
-0.12344
25.0768
-0.244342
-0.123361
25.0745
-0.240068
-0.123177
25.0731
-0.237535
-0.122982
25.0713
-0.235273
-0.122786
25.0693
-0.234644
-0.122603
25.0664
-0.234293
-0.122449
25.063
-0.235098
-0.122321
25.0589
-0.236196
-0.122224
25.0531
-0.237408
-0.12215
25.0466
-0.239321
-0.121998
25.0383
-0.24077
-0.12189
25.0289
-0.242303
-0.121701
25.019
-0.243662
-0.121437
25.0082
-0.244409
-0.121077
24.9964
-0.2436
-0.120602
-0.242375
-0.119951
25.0066
-0.0152978
0.000155185
25.0098
-0.00483208
0.00027021
25.0175
0.00780338
0.000254329
25.0371
0.0126072
0.000100726
25.0625
0.022163
-0.000381387
25.0917
0.0387356
-0.00137776
25.1394
0.0398745
-0.00310758
25.2002
0.0529
-0.00598012
25.2789
0.0633313
-0.0106637
25.3743
0.0674471
-0.0177657
25.481
0.0541172
-0.0278846
25.5618
0.0168857
-0.0414422
25.5404
-0.0759914
-0.0572726
25.5273
-0.15002
-0.0732881
25.4056
-0.039247
-0.0871873
25.3237
-0.173542
-0.0982512
25.2738
-0.168985
-0.106056
25.2124
-0.162878
-0.111638
25.1677
-0.155025
-0.115299
25.1361
-0.146445
-0.117634
25.1133
-0.138477
-0.119017
25.0962
-0.132195
-0.119591
25.0845
-0.126832
-0.119739
25.0765
-0.122837
-0.119599
25.0712
-0.119702
-0.119339
25.0677
-0.117604
-0.118883
25.0645
-0.115924
-0.118413
25.0622
-0.11504
-0.117958
25.0599
-0.114866
-0.11748
25.0573
-0.114589
-0.117075
25.0541
-0.11515
-0.116727
25.0498
-0.115487
-0.116445
25.0451
-0.1165
-0.116172
25.0389
-0.117177
-0.115931
25.032
-0.118261
-0.115698
25.0239
-0.118804
-0.115405
25.015
-0.119661
-0.115023
25.0051
-0.120001
-0.114531
24.9952
-0.119803
-0.113919
-0.120176
-0.113179
24.9869
0.00013501
24.9819
0.00024216
24.9897
0.000159943
25.0024
-1.22553e-05
25.0254
-0.000620364
25.0662
-0.00171617
25.11
-0.00359055
25.17
-0.00666024
25.2453
-0.0114984
25.3318
-0.018502
25.4146
-0.0280942
25.4725
-0.0404564
25.4517
-0.0545898
25.3712
-0.0689877
25.4144
-0.081962
25.3343
-0.0929337
25.2666
-0.100911
25.2105
-0.106486
25.1659
-0.110255
25.1322
-0.112687
25.108
-0.114147
25.0907
-0.114827
25.0788
-0.114972
25.0707
-0.114731
25.0654
-0.114375
25.0617
-0.113876
25.0592
-0.113369
25.0571
-0.112956
25.0547
-0.112497
25.0523
-0.112165
25.0491
-0.111943
25.0454
-0.111752
25.0405
-0.111594
25.0348
-0.111484
25.0279
-0.111423
25.0204
-0.11129
25.0118
-0.111052
25.0025
-0.11069
24.9929
-0.110193
-0.109557
24.9955
0.00166267
0.00227585
24.9885
0.00444281
0.0047558
24.9774
0.00699648
0.00771195
24.9613
0.0100689
0.0114288
24.94
0.0128001
0.0162437
24.9109
0.0173722
0.0225923
24.8695
0.0254541
0.0308965
24.8129
0.0352085
0.0415984
24.7584
0.0265655
0.0550387
24.7233
-0.00123407
0.0715608
24.6996
-0.021995
0.0905048
24.6382
0.00535118
0.111264
24.6668
-0.0952018
0.132478
24.7837
-0.193618
0.152785
24.8149
-0.116512
0.170434
24.8371
-0.114512
0.184759
24.8585
-0.118781
0.196016
24.8761
-0.118925
0.204842
24.8916
-0.119765
0.211599
24.9179
-0.132781
0.216641
24.9445
-0.134691
0.220177
24.9652
-0.12996
0.222667
24.9816
-0.126358
0.224352
24.995
-0.124006
0.225426
25.006
-0.121777
0.226076
25.0153
-0.120221
0.22646
25.0229
-0.118631
0.226714
25.0292
-0.117356
0.226936
25.0348
-0.116688
0.227242
25.04
-0.116418
0.227696
25.0448
-0.116306
0.228291
25.0495
-0.116602
0.22901
25.055
-0.117785
0.229772
25.0616
-0.119272
0.230564
25.0691
-0.120479
0.231164
25.0782
-0.122351
0.231524
25.0888
-0.123926
0.23131
25.1012
-0.125393
0.230519
25.1158
-0.126773
0.22878
-0.127526
0.225413
24.9955
0.00338033
0.00222333
24.9886
0.00890998
0.00465488
24.977
0.0145994
0.00756487
24.9609
0.0202363
0.0112438
24.9391
0.0262114
0.0160301
24.9118
0.0330581
0.0223841
24.8792
0.0421453
0.0307635
24.8374
0.0556106
0.0417267
24.7757
0.0598593
0.0558099
24.7014
0.0357517
0.0734563
24.6598
-0.0280904
0.0943704
24.5994
0.00586946
0.117732
24.6352
-0.202142
0.141629
24.7668
-0.407677
0.164228
24.846
-0.287553
0.183115
24.9119
-0.279406
0.198018
24.9602
-0.271537
0.20961
24.9988
-0.266041
0.218485
25.0427
-0.275247
0.225204
25.074
-0.277815
0.230041
25.0922
-0.26829
0.233428
25.1051
-0.25947
0.235775
25.1136
-0.2523
0.237386
25.1199
-0.24806
0.238381
25.1248
-0.244531
0.23895
25.1278
-0.241106
0.239264
25.1296
-0.238204
0.2395
25.1312
-0.236766
0.23978
25.1322
-0.235607
0.240194
25.133
-0.235261
0.240779
25.1342
-0.236006
0.241536
25.1362
-0.237577
0.242423
25.1386
-0.239659
0.243413
25.1421
-0.242858
0.244343
25.1476
-0.246514
0.245099
25.1542
-0.249891
0.245512
25.1629
-0.253726
0.245386
25.1739
-0.257209
0.244533
25.1866
-0.2595
0.242742
-0.261211
0.239247
24.9956
0.00512819
0.00212386
24.9888
0.0133062
0.00445793
24.9774
0.0221734
0.00726608
24.9607
0.0311987
0.0108384
24.9379
0.0409902
0.0155301
24.9082
0.0515175
0.0218353
24.8706
0.0641917
0.0303159
24.8248
0.0801806
0.0416965
24.7601
0.0957695
0.0568289
24.6663
0.0909281
0.0764952
24.5906
0.00416759
0.100954
-0.00601186
0.00378535
-0.00525842
24.7264
-0.0391088
0.129074
-0.0591392
-0.0384379
-0.0575442
24.5855
0.0212855
0.157773
-0.0943802
0.0235181
-0.0908605
24.7472
-0.213591
0.18446
-0.122117
-0.209707
-0.116989
24.8356
-0.126584
0.20451
-0.118655
-0.12146
-0.112623
24.8924
-0.115392
0.219408
-0.113954
-0.109917
-0.10788
24.9435
-0.112728
0.230883
-0.112572
-0.107028
-0.106778
25.007
-0.115569
0.239592
-0.114953
-0.110025
-0.109411
25.048
-0.112805
0.245989
-0.111933
-0.107607
-0.107385
25.073
-0.109995
0.250367
-0.108748
-0.105638
-0.104105
25.0909
-0.413511
0.253221
25.1031
-0.400205
0.255128
25.111
-0.388987
0.256239
25.1164
-0.382692
0.257437
25.1201
-0.377213
0.257955
25.1223
-0.371996
0.258369
25.1237
-0.367415
0.258123
25.1238
-0.364263
0.258149
25.1235
-0.362372
0.258314
25.1239
-0.362609
0.258696
25.1238
-0.363008
0.259307
25.1245
-0.365831
0.260125
25.1267
-0.36986
0.260832
25.1294
-0.37461
0.262053
25.1336
-0.38051
0.26287
25.1399
-0.386746
0.263353
25.1482
-0.393069
0.26327
25.1587
-0.398796
0.262388
25.172
-0.403426
0.260508
-0.406297
0.256883
24.9965
0.00652468
0.00197244
24.9901
0.0175888
0.00414794
24.9789
0.0297633
0.00677463
24.9625
0.0423553
0.0101348
24.9395
0.0564785
0.0145927
24.9066
0.0738161
0.0206615
24.8622
0.093801
0.0290354
24.8048
0.117011
0.0406057
24.7373
0.134658
0.0566601
6.14361
0.03648
0.0788378
0.0512174
0.0361017
0.0505831
6.16331
6.14402
6.16293
-0.0115116
6.12656
0.0152435
0.0174419
-0.0154393
-6.11493
6.10334
-0.0354224
0.0233495
-0.0195486
-6.10767
6.10035
0.0186128
0.0295902
-0.0236349
-6.11592
6.14781
-0.257583
0.035787
-0.0265925
-6.16591
6.17957
-0.153918
0.0402814
-0.0285268
-6.19251
6.20303
-0.140618
0.0432175
-0.0299922
-6.21365
6.22777
-0.142343
0.0454882
-0.031155
-6.24024
6.24732
-0.13877
0.0473005
-0.0320284
-6.25289
6.25797
-0.134463
0.0486299
-0.0326164
-6.26147
6.26526
-0.130735
0.0495895
25.0967
-0.144336
0.280663
-0.144812
-0.14414
-0.142435
-6.26863
-6.27239
-6.26789
-6.27156
25.1037
-0.554694
0.282142
25.1064
-0.537507
0.281776
25.1083
-0.529435
0.282295
25.1083
-0.520811
0.28228
25.1064
-0.512582
0.282323
25.1042
-0.506145
0.28175
25.101
-0.501002
0.281492
25.097
-0.497616
0.281423
25.0922
-0.496691
0.281605
25.0876
-0.497323
0.282035
25.0828
-0.500471
0.282659
25.0782
-0.505159
0.283089
25.0745
-0.511937
0.283963
25.0719
-0.519912
0.28422
25.0714
-0.528925
0.284076
25.0727
-0.537574
0.283081
25.077
-0.546184
0.281088
25.0854
-0.554104
0.277849
-0.558891
0.272679
24.9982
0.00630048
0.0017669
24.9929
0.0209495
0.00371764
24.9832
0.0362942
0.00606823
24.9684
0.0525295
0.00907355
24.9462
0.0720377
0.0130766
24.914
0.0968014
0.0183136
24.8655
0.129064
0.0262559
24.7932
0.170566
0.0371061
6.17357
0.219563
0.0527486
6.16668
6.17418
6.16703
-0.00785137
6.15856
0.0473695
0.0119461
-0.0112649
6.1331
0.0171661
-6.1613
0.0189662
0.0107928
0.0192558
0.0104921
-0.037207
-0.0156599
-6.08111
6.04861
0.0240138
-0.00321514
0.00238052
-0.00324109
0.00231245
0.0260422
-0.0207866
-6.04768
6.0617
0.0319573
0.0516144
-0.0412604
0.051109
-0.0409784
-0.0453805
-0.0260537
-6.10223
6.14316
0.0398436
-0.0512818
-0.129597
-0.0520299
-0.129045
0.307515
-0.0285761
-6.17352
6.18434
0.0437121
-0.049843
-0.0537616
-0.0506609
-0.0529907
0.181416
-0.0296529
-6.19706
6.21057
0.0454737
-0.0504851
-0.0503478
-0.0511766
-0.0496685
0.172353
-0.0305291
-6.22386
6.23552
0.046922
-0.0488146
-0.0493221
-0.0494984
-0.0486594
0.168288
-0.0313251
-6.24499
6.25205
0.0481713
-0.0460155
-0.0467458
-0.0469925
-0.0460262
0.161959
-0.0320145
-6.25833
6.2624
0.0492061
-0.0437643
-0.044627
-0.0445465
-0.043855
0.155607
-0.0325572
-6.26618
6.26792
0.050045
-0.0418929
-0.0427436
-0.0424223
-0.0419715
0.149839
-6.26994
-0.0323929
6.27119
-0.163706
0.0505234
25.0358
-0.681844
0.291664
-6.27115
-6.26432
-6.27084
-6.26246
25.0099
-0.667177
0.289134
24.9837
-0.653424
0.285758
24.9584
-0.639483
0.28113
24.9349
-0.627114
0.276126
24.9124
-0.616118
0.27128
24.8908
-0.606742
0.266159
24.8697
-0.599738
0.261722
24.8483
-0.595475
0.257793
24.8271
-0.594333
0.25434
24.8061
-0.596433
0.251026
24.7858
-0.601592
0.248434
24.7665
-0.609399
0.245543
24.7495
-0.61976
0.242447
24.7352
-0.631601
0.238906
24.7252
-0.644278
0.234622
24.7202
-0.656868
0.229331
24.7209
-0.668677
0.22283
-0.679158
0.214625
25.0019
0.00288849
0.00150761
24.9995
0.0217308
0.00316774
24.9916
0.0415031
0.0051442
24.9794
0.0608553
0.00763888
24.9618
0.0841768
0.0109252
24.9358
0.11564
0.0148909
24.8935
0.160468
0.0216075
24.8224
0.226366
0.0303489
6.17275
0.330357
0.0432151
6.17168
6.17318
6.17181
-0.00627028
-0.0621328
6.14747
0.0839217
0.00976639
-0.00206246
-0.018479
-1.52819
1.52302
0.0229875
0.00273932
-0.00303914
-0.0171779
-1.50493
1.49248
0.0287921
0.00390876
-0.0044865
-1.47016
0.0534388
1.48022
-0.0646659
0.00573655
-0.00637221
-1.52974
0.154123
1.54119
-0.16719
0.00806858
-0.00715612
-1.53779
0.0603896
-0.0642721
1.53986
0.00900889
-1.54929
-0.00673779
0.0593539
-0.0639355
0.00857535
1.55205
-0.00629395
0.0569139
-1.55757
1.55896
-0.0603179
0.00831316
-0.0060479
0.0528759
-1.56166
1.56212
-0.0554343
0.00815281
-0.00592389
0.0499284
-1.56247
1.56244
-0.0519632
0.00799366
-0.00584207
0.0472715
-1.5615
1.561
-0.0487469
0.00782008
-1.55477
-0.0214081
0.176018
6.1609
-0.162622
0.0362578
-1.53776
-1.55557
-1.54105
23.7665
-0.790074
0.148694
-6.09621
-5.78644
-6.07999
-5.77532
23.7831
-0.761051
0.146842
23.8003
-0.744533
0.143568
23.8194
-0.728301
0.138389
23.8394
-0.713023
0.13277
23.8595
-0.699083
0.12759
23.8798
-0.687144
0.122387
23.8998
-0.677874
0.11793
23.9195
-0.671834
0.113912
23.939
-0.669279
0.110152
23.9589
-0.670247
0.106202
23.9791
-0.674629
0.102552
24.0007
-0.681914
0.0982916
24.0235
-0.691488
0.0935441
24.0481
-0.702506
0.0881668
24.0745
-0.713931
0.0820604
24.1023
-0.724526
0.0750787
24.1308
-0.732771
0.0669425
-0.736543
0.0569372
25.0089
0.00165625
0.00123003
25.0095
0.0198455
0.00254341
25.0059
0.0430277
0.00406574
24.999
0.064888
0.00592021
24.9888
0.0903091
0.0082631
24.9749
0.124479
0.0108074
24.9549
0.172829
0.0153016
24.9237
0.247254
0.0205171
6.21311
0.37139
0.0276563
6.22091
6.21317
6.22101
-0.00378449
-0.101847
6.19743
0.115358
0.00596324
-0.00114552
-0.0380719
-1.54179
1.53559
0.0438884
0.00153966
-0.00124491
-0.080207
-1.50533
1.48669
0.0983618
0.00175253
-0.000111003
0.00469359
-0.0748634
0.0751471
-0.0050023
0.000135168
-0.00313421
-0.199144
0.0108363
-0.0207049
0.000545984
0.211598
-1.16916
0.000260191
0.0596772
-0.0793543
-0.00444379
1.19302
0.00195719
0.0537433
-1.24442
1.25503
-0.0610863
-0.00521717
0.00275702
0.0544229
-1.28534
1.29521
-0.0618442
-0.00519634
0.00307828
0.0514368
-1.31993
1.32754
-0.0570043
-0.00512014
0.00337634
0.0490334
-1.34723
1.3547
-0.0546002
-0.00528154
-1.39403
0.0246316
0.187335
5.79849
-0.219151
-0.0373695
-1.49288
-1.37774
-1.48928
24.1464
-0.700104
-0.232324
-5.86478
-6.17214
-5.90576
-6.17625
24.1631
-0.667309
-0.228057
24.1738
-0.65229
-0.222298
24.1814
-0.639765
-0.216682
24.1874
-0.628891
-0.211157
24.1943
-0.620429
-0.205814
24.2041
-0.614688
-0.200813
24.2178
-0.611534
-0.196246
24.236
-0.610942
-0.192148
24.2584
-0.612719
-0.188509
24.2845
-0.616793
-0.185344
24.3134
-0.622915
-0.182614
24.3439
-0.630509
-0.18039
24.3745
-0.63867
-0.17861
24.4039
-0.646868
-0.177309
24.4309
-0.654301
-0.176523
24.4546
-0.660035
-0.176401
24.4741
-0.662543
-0.177086
-0.659303
-0.17869
25.0082
-0.00339995
0.000929356
25.0151
0.0119933
0.00189028
25.0217
0.035128
0.00293007
25.0253
0.0593412
0.00408839
25.0243
0.0888248
0.00539133
25.0281
0.117686
0.00657943
25.0393
0.157763
0.0083031
25.0662
0.215674
0.00949411
6.27471
0.304682
0.00987274
6.28693
6.27595
6.29004
-0.00101887
-0.10722
6.28177
0.0995532
0.00162345
-0.000114622
-0.0434803
-1.57729
1.57888
0.0418361
0.000160574
0.000665677
-0.0809481
-1.59896
1.61535
0.0645411
-0.000678754
0.00355508
-0.0270357
-1.7116
1.75041
0.0604434
-0.0023924
-0.0225371
-0.0280261
-0.0228883
0.00453358
0.112126
-1.7112
1.67972
-0.0794727
-0.00579073
0.106393
-1.60919
0.00532898
1.59804
-0.093751
-0.00686779
0.00586187
0.0751691
-1.58298
-0.00750158
1.58083
-0.0714018
0.00614468
0.0551545
-1.57764
1.57618
-0.0520082
-0.00782446
0.00633163
0.0571983
-1.57534
1.5739
-0.0540721
-0.00801464
0.00651998
0.0515148
-1.57301
1.57235
-0.0491788
-0.0081934
0.00665502
0.0478949
-1.56954
1.56985
-0.0465262
-0.00833378
-1.57001
0.0276358
0.182793
6.27536
-0.160512
-0.0436837
-1.57018
-1.57035
-1.57106
25.0926
-0.538634
-0.266874
-6.27812
-6.27091
-6.28433
-6.27687
25.0937
-0.525857
-0.267378
25.0919
-0.510227
-0.266578
25.0897
-0.499564
-0.265786
25.0876
-0.490874
-0.264774
25.086
-0.485141
-0.263477
25.0842
-0.481364
-0.262023
25.0822
-0.479693
-0.260554
25.0797
-0.479944
-0.259189
25.0764
-0.481655
-0.258023
25.072
-0.48501
-0.257137
25.0667
-0.489754
-0.256801
25.0598
-0.495146
-0.256315
25.0508
-0.500203
-0.256351
25.0404
-0.505754
-0.25662
25.0283
-0.509968
-0.257139
25.0146
-0.512607
-0.257884
24.9998
-0.512594
-0.258816
-0.510104
-0.25964
25.0068
-0.007955
0.000638074
25.0169
0.00142414
0.00125725
25.0309
0.0203465
0.00184406
25.0391
0.0502177
0.00234557
25.0564
0.070535
0.00266662
25.0793
0.0938427
0.00262108
25.1163
0.120214
0.00184766
25.1805
0.151988
-0.000339768
6.32863
0.192367
-0.00522668
6.31781
6.33279
6.31638
-0.0845921
0.001248
6.34668
0.0672488
-0.00192095
-0.0325586
0.00335979
6.41974
0.0859375
-0.00478138
-0.0305241
-0.032653
-0.0294835
-6.37901
-0.0291701
0.00742265
6.49018
0.0806168
-0.0104912
-0.0287295
-0.0281007
-0.0309145
-6.45089
-0.00964609
0.0132378
-6.5387
6.49843
-0.0574267
-0.0195902
0.0625744
-0.0109476
0.0618272
0.035073
0.0199732
-6.49155
6.47338
-0.143671
-0.0297713
0.051546
0.0342008
0.0506121
0.0582485
-6.45014
0.0249571
6.40706
-0.182674
-0.0372246
0.0573109
0.0616773
0.0607152
0.0560808
0.0277822
-6.36746
6.34017
-0.177336
-0.0415792
0.0541793
0.0550115
0.0531795
0.0460605
0.0296583
-6.32661
6.31963
-0.159865
-0.0444657
0.045527
0.0452197
0.044845
0.0450465
0.0309132
-6.31519
6.30701
-0.156359
-0.04637
0.0456362
0.0443307
0.044947
0.0443831
0.0316007
-6.29798
6.28876
-0.146391
-0.0474998
0.0419408
0.0437784
0.0413584
0.0394172
0.0319558
-6.28114
6.27325
-0.129428
-0.0481021
0.0364751
0.0398859
0.0376579
0.140636
-6.27174
0.0321573
6.27215
-0.124819
-0.0483834
25.0748
-0.393233
-0.267886
-6.27076
-6.26897
-6.27154
-6.26891
25.0699
-0.382676
-0.266418
25.0683
-0.37242
-0.264493
25.0676
-0.36434
-0.26291
25.0683
-0.35848
-0.261301
25.0688
-0.35404
-0.259685
25.0695
-0.351596
-0.25818
25.0701
-0.350553
-0.256876
25.0695
-0.350299
-0.255826
25.0684
-0.351675
-0.25505
25.0657
-0.353489