/*--------------------------------*- C++ -*----------------------------------*\
| =========                 |                                                 |
| \\      /  F ield         | OpenFOAM: The Open Source CFD Toolbox           |
|  \\    /   O peration     | Version:  2306                                  |
|   \\  /    A nd           | Website:  www.openfoam.com                      |
|    \\/     M anipulation  |                                                 |
\*---------------------------------------------------------------------------*/
FoamFile
{
    version     2.0;
    format      ascii;
    arch        "LSB;label=32;scalar=64";
    class       volVectorField;
    location    "0.2";
    object      U;
}
// * * * * * * * * * * * * * * * * * * * * * * * * * * * * * * * * * * * * * //

dimensions      [0 1 -1 0 0 0 0];

internalField   nonuniform List<vector> 
111542
(
(99.9934 0.0057977 0.00229666)
(99.9712 0.011798 0.00491191)
(99.93 0.0179343 0.00791774)
(99.8685 0.0243246 0.0117421)
(99.7853 0.0306902 0.016751)
(99.6787 0.0362406 0.0233901)
(99.5478 0.0391076 0.0319411)
(99.395 0.0363267 0.0429361)
(99.2298 0.0232822 0.0569363)
(99.0718 -0.00639446 0.0740439)
(98.9538 -0.0583547 0.0937888)
(98.9161 -0.130289 0.115275)
(98.9846 -0.20415 0.137523)
(99.1501 -0.260333 0.15853)
(99.3678 -0.288148 0.176828)
(99.5888 -0.297133 0.192168)
(99.7857 -0.296229 0.204545)
(99.9503 -0.290165 0.214375)
(100.083 -0.281904 0.221915)
(100.188 -0.273399 0.227544)
(100.269 -0.265834 0.231347)
(100.33 -0.259317 0.233778)
(100.375 -0.253642 0.235449)
(100.409 -0.249297 0.236495)
(100.434 -0.246214 0.237227)
(100.453 -0.244037 0.238023)
(100.469 -0.242951 0.238761)
(100.481 -0.24288 0.239514)
(100.491 -0.243552 0.240445)
(100.5 -0.244853 0.24152)
(100.51 -0.24673 0.242638)
(100.52 -0.249172 0.243648)
(100.533 -0.251937 0.2446)
(100.55 -0.254887 0.245399)
(100.571 -0.257893 0.245893)
(100.598 -0.260802 0.24591)
(100.631 -0.263472 0.245226)
(100.671 -0.265546 0.243823)
(100.719 -0.266829 0.241581)
(100.791 -0.267376 0.238431)
(99.9936 0.0172626 0.00226)
(99.9719 0.0350567 0.00477614)
(99.9312 0.0536412 0.00778552)
(99.8701 0.0732911 0.0116082)
(99.7864 0.0933461 0.0166036)
(99.6766 0.111679 0.0232111)
(99.5377 0.123348 0.0319054)
(99.3694 0.119549 0.0432575)
(99.1777 0.0857234 0.0578236)
(98.9814 0.000955166 0.0758606)
(98.8211 -0.151957 0.0972239)
(98.7627 -0.366579 0.120047)
(98.85 -0.590682 0.144119)
(99.0613 -0.752478 0.166854)
(99.324 -0.833242 0.186209)
(99.5732 -0.862547 0.201837)
(99.7846 -0.862597 0.214244)
(99.9559 -0.846913 0.223967)
(100.091 -0.82478 0.231344)
(100.194 -0.801291 0.236671)
(100.272 -0.779306 0.240244)
(100.33 -0.76071 0.242596)
(100.372 -0.745679 0.244265)
(100.402 -0.73415 0.245649)
(100.425 -0.724565 0.246987)
(100.442 -0.716117 0.248402)
(100.455 -0.709516 0.249877)
(100.466 -0.705194 0.251396)
(100.475 -0.7031 0.252939)
(100.483 -0.703256 0.254441)
(100.492 -0.705724 0.255824)
(100.503 -0.710523 0.257006)
(100.516 -0.717317 0.25794)
(100.533 -0.725777 0.258547)
(100.555 -0.735485 0.258715)
(100.583 -0.745881 0.258318)
(100.618 -0.756291 0.257218)
(100.66 -0.765708 0.255309)
(100.71 -0.773272 0.252495)
(100.783 -0.778327 0.248787)
(99.994 0.0282662 0.00216516)
(99.9733 0.0574744 0.0045803)
(99.9343 0.0887129 0.00750133)
(99.8747 0.122675 0.0112259)
(99.7908 0.15897 0.0161243)
(99.6765 0.195176 0.0226798)
(99.5244 0.224919 0.0314844)
(99.3271 0.234551 0.0432532)
(99.082 0.19751 0.0587846)
(98.8062 0.0656049 0.0787818)
(98.5586 -0.269233 0.103638)
(98.4505 -0.731476 0.132303)
(98.5766 -1.14914 0.15897)
(98.8829 -1.38776 0.183633)
(99.2271 -1.48459 0.203533)
(99.525 -1.51252 0.218746)
(99.7638 -1.49692 0.230515)
(99.9483 -1.46075 0.239607)
(100.087 -1.41845 0.246353)
(100.189 -1.37603 0.250965)
(100.263 -1.33752 0.253591)
(100.314 -1.30168 0.255179)
(100.35 -1.27904 0.256817)
(100.377 -1.26804 0.259069)
(100.397 -1.26143 0.261938)
(100.413 -1.25616 0.265229)
(100.423 -1.25237 0.26871)
(100.43 -1.25059 0.272138)
(100.435 -1.25098 0.275282)
(100.44 -1.25375 0.277951)
(100.445 -1.25905 0.279996)
(100.451 -1.26693 0.281319)
(100.459 -1.27721 0.281869)
(100.472 -1.28949 0.281623)
(100.49 -1.30315 0.280558)
(100.514 -1.31731 0.278649)
(100.546 -1.33085 0.275854)
(100.587 -1.34242 0.272135)
(100.637 -1.35062 0.267498)
(100.714 -1.35421 0.26212)
(99.9946 0.0382922 0.00201635)
(99.976 0.0782043 0.00427348)
(99.9405 0.121854 0.00701228)
(99.8851 0.171057 0.0105199)
(99.8044 0.226813 0.0151695)
(99.689 0.288442 0.0214691)
(99.5248 0.351568 0.0300977)
(99.2911 0.403511 0.041936)
(98.9595 0.414512 0.058123)
(98.4661 0.211147 0.0801369)
(98.2121 0.0302317 0.0870228)
(97.8714 -0.626678 0.103296)
(97.9411 -1.42786 0.117846)
(98.4209 -1.94003 0.130088)
(98.9213 -2.08879 0.141426)
(99.3122 -2.11934 0.148964)
(99.6238 -2.08233 0.154512)
(99.8546 -2.0127 0.158796)
(100.02 -1.93808 0.162008)
(100.139 -1.87163 0.164315)
(100.29 -1.93098 0.267884)
(100.324 -1.85931 0.268285)
(100.332 -1.80778 0.270881)
(100.336 -1.77645 0.275987)
(100.34 -1.75607 0.282572)
(100.341 -1.74345 0.289718)
(100.336 -1.73738 0.296733)
(100.326 -1.73677 0.303062)
(100.313 -1.74076 0.308277)
(100.298 -1.749 0.312074)
(100.281 -1.76128 0.314277)
(100.264 -1.77741 0.314825)
(100.249 -1.79706 0.313746)
(100.236 -1.81964 0.311123)
(100.229 -1.84426 0.307069)
(100.228 -1.86964 0.301703)
(100.236 -1.89415 0.295121)
(100.256 -1.91584 0.28743)
(100.288 -1.9326 0.278793)
(100.348 -1.94208 0.269686)
(99.9956 0.0465843 0.00181112)
(99.9806 0.0956109 0.00384144)
(99.9514 0.150467 0.00629713)
(99.9047 0.214664 0.00943355)
(99.8342 0.291753 0.0135958)
(99.7285 0.385203 0.0192602)
(99.5681 0.497551 0.0270945)
(99.3205 0.627159 0.0379955)
(98.8811 0.760246 0.0531756)
(98.5397 0.764266 0.0586892)
(97.7332 0.369237 0.0728248)
(96.9383 -0.702705 0.0911919)
(97.0417 -2.35327 0.106475)
(98.1686 -2.95149 0.11748)
(98.8885 -2.97665 0.128894)
(99.3522 -2.93058 0.135339)
(99.7073 -2.81013 0.140991)
(99.9393 -2.6753 0.146317)
(100.087 -2.55394 0.151041)
(100.176 -2.4584 0.155961)
(100.231 -2.41918 0.16952)
(100.157 -2.52312 0.290236)
(100.03 -2.51373 0.289558)
(99.9069 -2.489 0.295112)
(99.7949 -2.45895 0.304034)
(99.6863 -2.43262 0.314246)
(99.5798 -2.41189 0.324112)
(99.4766 -2.39636 0.332279)
(99.3776 -2.38578 0.337737)
(99.2834 -2.38022 0.33986)
(99.1945 -2.3797 0.338399)
(99.1117 -2.38416 0.333429)
(99.0362 -2.3934 0.325263)
(98.9693 -2.40701 0.31437)
(98.9129 -2.42428 0.301298)
(98.8692 -2.44409 0.286591)
(98.8406 -2.4648 0.270726)
(98.8297 -2.48434 0.254122)
(98.8391 -2.50057 0.237188)
(98.8866 -2.51246 0.220719)
(99.9971 0.052208 0.00155142)
(99.9871 0.107656 0.00328592)
(99.9675 0.170963 0.00535635)
(99.9353 0.247465 0.00795811)
(99.8849 0.343766 0.0113576)
(99.8061 0.46892 0.0159183)
(99.6794 0.636271 0.0221407)
(99.4682 0.865701 0.0306724)
(99.0484 1.18804 0.042316)
(98.6402 1.34556 0.0469185)
(97.688 1.47798 0.0453547)
(95.5885 0.6919 0.0421474)
(94.4134 -3.45897 0.0569981)
(98.2255 -4.73187 0.0469423)
(98.7464 -3.91118 0.0570654)
(99.3123 -3.84409 0.0664267)
(99.6897 -3.63094 0.0637779)
(99.8294 -3.4098 0.0560354)
(99.8308 -3.23217 0.0454581)
(99.7329 -3.07633 0.0355335)
(98.4316 -2.89561 0.267735)
(95.3225 -2.37229 0.23196)
(95.3608 -2.46467 0.219366)
(95.4104 -2.51984 0.209105)
(95.4458 -2.5562 0.199067)
(95.4745 -2.58602 0.18846)
(95.5065 -2.61228 0.177057)
(95.5463 -2.63538 0.164857)
(95.5947 -2.6559 0.152075)
(95.6515 -2.67468 0.139081)
(95.7164 -2.69267 0.12628)
(95.7887 -2.71087 0.114004)
(95.8679 -2.73019 0.102426)
(95.9533 -2.75135 0.091573)
(96.0448 -2.77458 0.0813354)
(96.1421 -2.79944 0.0714978)
(96.2449 -2.8246 0.0617886)
(96.3528 -2.84773 0.0519081)
(96.464 -2.86542 0.0415741)
(96.5998 -2.87297 0.0307354)
(99.9989 0.0542203 0.00127608)
(99.9953 0.112216 0.00265664)
(99.988 0.179409 0.00425123)
(99.9753 0.2624 0.00618112)
(99.9548 0.369993 0.0085887)
(99.9214 0.515546 0.0116472)
(99.8667 0.720857 0.0155378)
(99.7757 1.0242 0.0203659)
(99.5994 1.49863 0.0259765)
(99.3293 1.8949 0.0282029)
(98.6046 2.82199 0.0251275)
(95.4543 5.79446 0.0172405)
(77.1638 -4.37198 0.0331611)
(102.765 -10.2973 0.0216706)
(54.1457 -3.99481 -0.142156)
(76.2035 -4.78894 -0.0602914)
(80.7522 -4.2184 -0.0816691)
(83.8036 -3.9255 -0.0312304)
(86.0017 -3.70307 0.0152076)
(87.7474 -3.56418 0.0429223)
(93.5801 -3.96452 -0.202353)
(96.0305 -3.28634 -0.268735)
(96.2185 -3.16888 -0.276605)
(96.4238 -3.08744 -0.286484)
(96.6057 -3.03034 -0.297562)
(96.7692 -2.98876 -0.307557)
(96.9221 -2.95853 -0.314508)
(97.0663 -2.93711 -0.317374)
(97.2009 -2.92264 -0.315895)
(97.3253 -2.91382 -0.310338)
(97.4396 -2.90982 -0.301304)
(97.5441 -2.91014 -0.289588)
(97.639 -2.91432 -0.276066)
(97.7244 -2.92175 -0.261608)
(97.8002 -2.93149 -0.247026)
(97.8662 -2.94206 -0.233035)
(97.9219 -2.95126 -0.220259)
(97.9671 -2.95592 -0.209241)
(98.0022 -2.95126 -0.200561)
(98.0346 -2.92902 -0.195379)
(100.001 0.0522497 0.00103632)
(100.004 0.108129 0.00204552)
(100.01 0.173332 0.00313274)
(100.02 0.254649 0.0043319)
(100.033 0.361122 0.00564775)
(100.053 0.506254 0.0070372)
(100.086 0.711367 0.00833448)
(100.146 1.01221 0.00908457)
(100.286 1.47106 0.0082461)
(100.331 1.88016 0.00770711)
(100.598 2.86243 0.00282708)
(102.407 5.3918 -0.00825205)
(111.156 3.93023 -0.0495376)
(109.079 -6.70895 0.0247948)
(102.814 -6.75574 -0.0366822)
(101.158 -4.97717 -0.0527247)
(100.709 -4.00121 -0.052925)
(100.529 -3.47063 -0.0506472)
(100.434 -3.16145 -0.0494722)
(100.359 -2.97876 -0.0507748)
(100.262 -2.75253 -0.156851)
(100.286 -2.30366 -0.25918)
(100.277 -2.19545 -0.25977)
(100.276 -2.13204 -0.262742)
(100.278 -2.09713 -0.267883)
(100.28 -2.07729 -0.274354)
(100.281 -2.06751 -0.281142)
(100.282 -2.06601 -0.287419)
(100.281 -2.07154 -0.292574)
(100.278 -2.08292 -0.29619)
(100.27 -2.09917 -0.298036)
(100.259 -2.11938 -0.298076)
(100.241 -2.14254 -0.296428)
(100.218 -2.16743 -0.293336)
(100.187 -2.19256 -0.289129)
(100.149 -2.21605 -0.284182)
(100.103 -2.23564 -0.27889)
(100.05 -2.24858 -0.273633)
(99.9917 -2.25152 -0.268747)
(99.9171 -2.24059 -0.264319)
(100.003 0.0458735 0.000649166)
(100.012 0.0949492 0.00133266)
(100.031 0.152255 0.00197868)
(100.061 0.223639 0.00250726)
(100.105 0.316532 0.00281352)
(100.172 0.441037 0.00268788)
(100.275 0.61133 0.00170935)
(100.439 0.846997 -0.000908361)
(100.753 1.17278 -0.00664599)
(100.975 1.41253 -0.00902936)
(101.823 1.87189 -0.01763)
(103.439 1.78267 -0.03397)
(105.238 -0.222439 -0.0527995)
(104.798 -2.81775 -0.0320414)
(103.005 -3.54486 -0.0500473)
(101.789 -3.3371 -0.0655712)
(101.156 -2.99418 -0.0757059)
(100.812 -2.70359 -0.0825726)
(100.61 -2.48459 -0.0874316)
(100.476 -2.31946 -0.0912058)
(100.382 -2.18614 -0.0958597)
(100.288 -1.891 -0.251881)
(100.262 -1.84835 -0.252544)
(100.249 -1.81663 -0.254052)
(100.246 -1.79495 -0.256279)
(100.248 -1.77986 -0.258831)
(100.251 -1.76943 -0.261256)
(100.254 -1.76321 -0.263207)
(100.255 -1.76099 -0.264475)
(100.254 -1.76238 -0.264973)
(100.249 -1.76695 -0.264712)
(100.239 -1.77419 -0.26378)
(100.224 -1.78344 -0.262304)
(100.202 -1.79387 -0.260428)
(100.174 -1.80437 -0.258291)
(100.14 -1.81363 -0.256017)
(100.099 -1.82014 -0.253707)
(100.053 -1.82226 -0.251444)
(100.004 -1.81863 -0.249294)
(99.9417 -1.80917 -0.247309)
(100.004 0.0355764 0.000468941)
(100.019 0.0737517 0.000891901)
(100.048 0.118178 0.00113925)
(100.094 0.173096 0.00109394)
(100.162 0.243498 0.000578851)
(100.261 0.335185 -0.000732895)
(100.406 0.45445 -0.00339333)
(100.623 0.60586 -0.00831096)
(100.956 0.785874 -0.016981)
(101.441 0.871465 -0.0313795)
(102.081 0.776558 -0.0534548)
(102.761 0.250481 -0.0838767)
(103.126 -0.740169 -0.117637)
(102.886 -1.57718 -0.147607)
(102.246 -1.89099 -0.17702)
(101.615 -1.90376 -0.200661)
(101.164 -1.82402 -0.217207)
(100.871 -1.72346 -0.228403)
(100.675 -1.62613 -0.235901)
(100.538 -1.53797 -0.240685)
(100.445 -1.45935 -0.243415)
(100.386 -1.38713 -0.244578)
(100.348 -1.32776 -0.245071)
(100.324 -1.27903 -0.245454)
(100.31 -1.2408 -0.245921)
(100.301 -1.21195 -0.246509)
(100.294 -1.19087 -0.247193)
(100.287 -1.17644 -0.247917)
(100.28 -1.16782 -0.248615)
(100.271 -1.16422 -0.249228)
(100.259 -1.16484 -0.24971)
(100.244 -1.16885 -0.250028)
(100.224 -1.17535 -0.250155)
(100.199 -1.18334 -0.250067)
(100.17 -1.19168 -0.249749)
(100.135 -1.19922 -0.249186)
(100.096 -1.20475 -0.248366)
(100.054 -1.20714 -0.247281)
(100.008 -1.2056 -0.24593)
(99.9468 -1.20015 -0.244307)
(100.005 0.022583 0.00031383)
(100.024 0.0466833 0.00051335)
(100.06 0.0746985 0.000480235)
(100.117 0.108919 6.52927e-05)
(100.199 0.152224 -0.00100294)
(100.316 0.206998 -0.00307527)
(100.479 0.274724 -0.00673365)
(100.707 0.352979 -0.0128153)
(101.015 0.428989 -0.022492)
(101.415 0.463743 -0.0371162)
(101.881 0.401182 -0.0578695)
(102.314 0.165754 -0.0850753)
(102.541 -0.254353 -0.116117)
(102.43 -0.686317 -0.146262)
(102.044 -0.935334 -0.173622)
(101.584 -1.00035 -0.195774)
(101.203 -0.976437 -0.21241)
(100.927 -0.925885 -0.224227)
(100.73 -0.872022 -0.232399)
(100.585 -0.821444 -0.237774)
(100.48 -0.776807 -0.240986)
(100.406 -0.741075 -0.24258)
(100.353 -0.714751 -0.243134)
(100.317 -0.69615 -0.243084)
(100.292 -0.683744 -0.242723)
(100.275 -0.676368 -0.242227)
(100.263 -0.672881 -0.241705)
(100.253 -0.672391 -0.241214)
(100.244 -0.674309 -0.240773)
(100.234 -0.678206 -0.240383)
(100.223 -0.683676 -0.240036)
(100.208 -0.690341 -0.239708)
(100.19 -0.697795 -0.239363)
(100.169 -0.70564 -0.238956)
(100.143 -0.713124 -0.238467)
(100.112 -0.719862 -0.237816)
(100.078 -0.725325 -0.236938)
(100.04 -0.728985 -0.23579)
(100.001 -0.730457 -0.234363)
(99.9512 -0.729502 -0.232752)
(100.006 0.00773849 0.000221879)
(100.027 0.0159445 0.000352116)
(100.066 0.0255175 0.000145187)
(100.128 0.0370755 -0.000398183)
(100.216 0.0516549 -0.00175889)
(100.341 0.0697957 -0.00420247)
(100.51 0.0915084 -0.00834836)
(100.737 0.115339 -0.0149161)
(101.028 0.136221 -0.0250499)
(101.378 0.141601 -0.0395465)
(101.752 0.11156 -0.0591223)
(102.076 0.0252847 -0.0836811)
(102.245 -0.11445 -0.111584)
(102.182 -0.260212 -0.139901)
(101.91 -0.354136 -0.165365)
(101.547 -0.384899 -0.18666)
(101.21 -0.38094 -0.203336)
(100.945 -0.366545 -0.215461)
(100.747 -0.350801 -0.223972)
(100.599 -0.335942 -0.229624)
(100.49 -0.322698 -0.233069)
(100.41 -0.311606 -0.234836)
(100.354 -0.302297 -0.235404)
(100.315 -0.294243 -0.235122)
(100.289 -0.286949 -0.234446)
(100.272 -0.280274 -0.233623)
(100.259 -0.274179 -0.2328)
(100.249 -0.26867 -0.232078)
(100.239 -0.263807 -0.23151)
(100.229 -0.259644 -0.231115)
(100.218 -0.256196 -0.230883)
(100.203 -0.253422 -0.230773)
(100.185 -0.251237 -0.230719)
(100.164 -0.24954 -0.230602)
(100.139 -0.24793 -0.23055)
(100.11 -0.24631 -0.230352)
(100.077 -0.244489 -0.229895)
(100.041 -0.242276 -0.229126)
(100.002 -0.239632 -0.228027)
(99.95 -0.236964 -0.226704)
(99.9936 0.0057615 0.00686277)
(99.9716 0.0116633 0.0145079)
(99.9309 0.0178048 0.0234987)
(99.8705 0.0241961 0.0348694)
(99.789 0.0305508 0.0496509)
(99.6845 0.036075 0.0690658)
(99.5564 0.0390881 0.0942232)
(99.4071 0.0366628 0.126611)
(99.2458 0.0241782 0.167626)
(99.0912 -0.00460446 0.217673)
(98.9755 -0.0550694 0.275921)
(98.9382 -0.125664 0.339698)
(99.0042 -0.197406 0.404917)
(99.1641 -0.251509 0.466234)
(99.3752 -0.278123 0.519504)
(99.5905 -0.28665 0.563772)
(99.7836 -0.285588 0.599322)
(99.9466 -0.279545 0.627274)
(100.08 -0.271405 0.648543)
(100.186 -0.263225 0.664171)
(100.268 -0.25585 0.674895)
(100.331 -0.249402 0.681943)
(100.379 -0.243738 0.686591)
(100.414 -0.239073 0.689323)
(100.44 -0.235399 0.69073)
(100.459 -0.232626 0.691511)
(100.473 -0.23082 0.691816)
(100.483 -0.229997 0.692041)
(100.49 -0.230071 0.692646)
(100.495 -0.230951 0.693765)
(100.5 -0.232554 0.695362)
(100.506 -0.234797 0.697269)
(100.514 -0.237544 0.699467)
(100.526 -0.240641 0.701677)
(100.543 -0.24391 0.703459)
(100.566 -0.24716 0.704299)
(100.596 -0.250164 0.703585)
(100.634 -0.252659 0.700919)
(100.68 -0.254437 0.695743)
(100.75 -0.255464 0.687483)
(99.9937 0.0171325 0.00673131)
(99.9723 0.0347289 0.0141808)
(99.9322 0.0532329 0.0230991)
(99.8723 0.0727896 0.0343981)
(99.7903 0.0927444 0.0491209)
(99.683 0.111017 0.0685455)
(99.5474 0.122965 0.0941178)
(99.3834 0.119959 0.127532)
(99.1967 0.0876566 0.170434)
(99.0053 0.00569063 0.223812)
(98.8485 -0.142552 0.287298)
(98.792 -0.349951 0.357678)
(98.878 -0.56857 0.429928)
(99.0834 -0.727519 0.496924)
(99.3383 -0.806338 0.553213)
(99.5808 -0.835386 0.59838)
(99.7877 -0.835735 0.633914)
(99.9566 -0.820592 0.661417)
(100.091 -0.799185 0.68203)
(100.194 -0.77671 0.696767)
(100.272 -0.755942 0.706711)
(100.331 -0.738295 0.713417)
(100.375 -0.723457 0.717934)
(100.406 -0.710919 0.720747)
(100.429 -0.699424 0.722291)
(100.446 -0.688715 0.7231)
(100.458 -0.679606 0.723618)
(100.467 -0.672835 0.724248)
(100.473 -0.668717 0.725287)
(100.478 -0.667424 0.726856)
(100.484 -0.669056 0.728946)
(100.491 -0.673572 0.731439)
(100.5 -0.680715 0.734158)
(100.514 -0.6901 0.736785)
(100.533 -0.701181 0.73888)
(100.558 -0.713245 0.739917)
(100.59 -0.725462 0.739323)
(100.63 -0.736864 0.736541)
(100.678 -0.746464 0.731013)
(100.75 -0.753403 0.722252)
(99.994 0.0280242 0.006444)
(99.9737 0.0569777 0.013598)
(99.9354 0.0879528 0.0222285)
(99.8771 0.121611 0.0332215)
(99.7952 0.157578 0.047668)
(99.6839 0.193521 0.0669831)
(99.5358 0.22326 0.0929365)
(99.344 0.233458 0.127693)
(99.1058 0.198098 0.173671)
(98.8379 0.0699484 0.233025)
(98.598 -0.256518 0.306446)
(98.4932 -0.707687 0.390306)
(98.616 -1.11514 0.474348)
(98.9142 -1.3486 0.549902)
(99.2484 -1.44419 0.609659)
(99.5379 -1.47291 0.655054)
(99.7715 -1.45831 0.689762)
(99.9532 -1.42306 0.716106)
(100.09 -1.38154 0.735285)
(100.191 -1.34008 0.7483)
(100.263 -1.30393 0.756165)
(100.315 -1.27127 0.761352)
(100.352 -1.24878 0.765285)
(100.38 -1.235 0.768184)
(100.401 -1.22396 0.770037)
(100.416 -1.21364 0.771125)
(100.425 -1.20489 0.771881)
(100.431 -1.1987 0.772672)
(100.433 -1.19566 0.773743)
(100.435 -1.19616 0.775221)
(100.437 -1.20041 0.777111)
(100.441 -1.20845 0.779317)
(100.447 -1.21999 0.781637)
(100.457 -1.23446 0.783756)
(100.473 -1.25105 0.785249)
(100.495 -1.2687 0.785586)
(100.525 -1.28608 0.784168)
(100.564 -1.30171 0.780371)
(100.613 -1.31402 0.773644)
(100.689 -1.32139 0.763699)
(99.9947 0.0379412 0.00599378)
(99.9765 0.0774742 0.0126704)
(99.9418 0.120669 0.0207536)
(99.8877 0.169299 0.0311035)
(99.8092 0.224347 0.0448325)
(99.697 0.285149 0.0634504)
(99.5375 0.347413 0.0890131)
(99.3105 0.398665 0.124243)
(98.988 0.409545 0.1727)
(98.5072 0.209837 0.23887)
(98.2543 0.0262052 0.272476)
(97.9218 -0.632454 0.351152)
(97.9949 -1.42795 0.434255)
(98.471 -1.9417 0.510262)
(98.9598 -2.09303 0.567531)
(99.3415 -2.12901 0.606966)
(99.6473 -2.09561 0.635597)
(99.8743 -2.02738 0.657179)
(100.037 -1.95254 0.673038)
(100.152 -1.88447 0.683953)
(100.282 -1.92025 0.814918)
(100.314 -1.85591 0.818149)
(100.326 -1.80333 0.820586)
(100.333 -1.76401 0.822877)
(100.34 -1.73185 0.824796)
(100.343 -1.70582 0.826233)
(100.34 -1.68641 0.827338)
(100.332 -1.67387 0.828358)
(100.321 -1.66842 0.829493)
(100.307 -1.67033 0.830832)
(100.291 -1.67969 0.832344)
(100.275 -1.69628 0.833874)
(100.258 -1.71943 0.835144)
(100.243 -1.74807 0.835758)
(100.232 -1.78071 0.835223)
(100.227 -1.81545 0.832967)
(100.23 -1.85005 0.828357)
(100.243 -1.8821 0.820756)
(100.27 -1.90905 0.80963)
(100.324 -1.92793 0.794826)
(99.9957 0.0461234 0.00537414)
(99.981 0.0946344 0.0113682)
(99.9526 0.148833 0.0186109)
(99.9073 0.212142 0.027872)
(99.8389 0.288015 0.0401895)
(99.7364 0.379801 0.0570143)
(99.5807 0.489888 0.0804122)
(99.34 0.616453 0.113252)
(98.9112 0.745412 0.159475)
(98.5728 0.744202 0.186023)
(97.7784 0.348052 0.254628)
(96.9971 -0.720064 0.344364)
(97.1099 -2.3547 0.445718)
(98.2285 -2.95009 0.534423)
(98.9276 -2.97906 0.588363)
(99.3794 -2.94603 0.612508)
(99.7304 -2.83393 0.627248)
(99.9599 -2.70244 0.639413)
(100.105 -2.58093 0.649721)
(100.189 -2.48174 0.657809)
(100.236 -2.42447 0.655557)
(100.097 -2.58143 0.78962)
(99.9752 -2.55666 0.790081)
(99.8634 -2.51183 0.790116)
(99.7671 -2.45949 0.78909)
(99.6784 -2.41043 0.786529)
(99.5939 -2.3682 0.782216)
(99.5124 -2.33396 0.776274)
(99.4323 -2.30874 0.768985)
(99.3521 -2.29339 0.76062)
(99.2711 -2.28831 0.751388)
(99.1899 -2.29341 0.741402)
(99.1096 -2.30811 0.730659)
(99.0328 -2.33139 0.719056)
(98.9623 -2.36177 0.70638)
(98.9018 -2.39722 0.69231)
(98.855 -2.43519 0.676389)
(98.8258 -2.47281 0.658069)
(98.8182 -2.50732 0.636808)
(98.8506 -2.53734 0.612585)
(99.9971 0.0516764 0.00458784)
(99.9875 0.106482 0.00968643)
(99.9686 0.168938 0.0157807)
(99.9375 0.24425 0.0234672)
(99.889 0.338827 0.0335627)
(99.8128 0.461444 0.0472077)
(99.6899 0.624993 0.0660063)
(99.4841 0.848641 0.09219)
(99.0722 1.16197 0.128745)
(98.6671 1.31526 0.150992)
(97.7221 1.44046 0.182497)
(95.6405 0.643584 0.240904)
(94.4922 -3.50263 0.34414)
(98.3227 -4.74161 0.461605)
(98.8133 -3.91934 0.528939)
(99.3652 -3.86068 0.51008)
(99.739 -3.65638 0.49843)
(99.8772 -3.43357 0.493508)
(99.879 -3.24238 0.484423)
(99.7889 -3.06501 0.465547)
(98.6617 -2.78232 0.368384)
(94.8844 -2.6367 0.328297)
(94.9587 -2.67491 0.337999)
(95.0551 -2.66865 0.345586)
(95.1438 -2.63833 0.349219)
(95.2284 -2.59949 0.349245)
(95.3139 -2.55938 0.346557)
(95.4004 -2.52296 0.342093)
(95.486 -2.4947 0.336628)
(95.5696 -2.47819 0.330617)
(95.6513 -2.47571 0.324175)
(95.7325 -2.48825 0.31716)
(95.815 -2.51557 0.309205)
(95.9007 -2.55628 0.299907)
(95.9916 -2.60799 0.288871)
(96.0889 -2.66734 0.275711)
(96.1931 -2.73013 0.26003)
(96.3038 -2.79152 0.241344)
(96.4191 -2.84634 0.218912)
(96.5631 -2.88984 0.191269)
(99.9989 0.0536908 0.00373903)
(99.9956 0.110969 0.00779866)
(99.9888 0.177186 0.0124943)
(99.977 0.258785 0.0181983)
(99.9577 0.364316 0.0253723)
(99.9259 0.506744 0.0345976)
(99.8731 0.707217 0.0465663)
(99.7842 1.00299 0.0619039)
(99.6091 1.46533 0.0807194)
(99.3395 1.85451 0.0919822)
(98.6134 2.76629 0.103033)
(95.4448 5.68839 0.106071)
(77.342 -4.68828 0.146358)
(50.979 -2.89246 1.08981)
(74.7972 -4.49901 -0.426057)
(79.4327 -3.91268 -0.424399)
(82.4469 -3.61242 -0.349591)
(84.5835 -3.38557 -0.277654)
(86.3236 -3.2526 -0.238969)
(92.3304 -3.62898 -0.379019)
(96.471 -3.46815 -0.650261)
(96.5657 -3.32652 -0.660493)
(96.6492 -3.21717 -0.661215)
(96.6937 -3.12798 -0.656482)
(96.7177 -3.05191 -0.647597)
(96.7406 -2.98751 -0.63523)
(96.773 -2.93514 -0.620212)
(96.8204 -2.89542 -0.603458)
(96.8856 -2.86877 -0.585849)
(96.969 -2.85524 -0.568222)
(97.0689 -2.85427 -0.551348)
(97.1817 -2.86465 -0.535889)
(97.303 -2.88445 -0.522378)
(97.4272 -2.9111 -0.511201)
(97.5489 -2.94135 -0.502622)
(97.6632 -2.97133 -0.496887)
(97.7658 -2.99636 -0.494289)
(97.8535 -3.01044 -0.495389)
(97.9358 -3.0044 -0.501285)
(100.001 0.0516057 0.00287746)
(100.004 0.106798 0.00582664)
(100.011 0.171058 0.00902896)
(100.021 0.250987 0.0125829)
(100.035 0.355377 0.016538)
(100.055 0.497338 0.0208356)
(100.088 0.697613 0.0250979)
(100.146 0.991092 0.0281934)
(100.281 1.43884 0.0273252)
(100.323 1.84144 0.0252052)
(100.579 2.81109 0.0116161)
(102.341 5.32807 -0.0450018)
(110.934 4.1173 -0.180147)
(109 -6.60894 -0.308505)
(102.748 -6.75344 -0.37653)
(101.115 -4.95761 -0.422468)
(100.68 -3.97968 -0.447411)
(100.515 -3.45046 -0.462743)
(100.436 -3.1417 -0.472979)
(100.373 -2.95862 -0.48044)
(100.288 -2.76003 -0.545335)
(100.325 -2.36568 -0.739961)
(100.313 -2.24523 -0.747394)
(100.306 -2.16753 -0.751231)
(100.302 -2.11711 -0.753807)
(100.298 -2.0826 -0.755369)
(100.294 -2.06082 -0.755501)
(100.29 -2.05107 -0.754076)
(100.286 -2.05249 -0.751249)
(100.28 -2.06379 -0.747309)
(100.27 -2.08347 -0.742628)
(100.258 -2.10986 -0.737619)
(100.24 -2.14109 -0.73268)
(100.217 -2.1751 -0.728121)
(100.188 -2.20959 -0.724218)
(100.151 -2.24204 -0.721162)
(100.107 -2.26964 -0.719119)
(100.056 -2.28919 -0.718237)
(99.9997 -2.29688 -0.718646)
(99.9295 -2.28776 -0.720056)
(100.003 0.0452955 0.0019016)
(100.013 0.0937878 0.00385373)
(100.032 0.150256 0.00569476)
(100.061 0.220413 0.00723859)
(100.106 0.311487 0.00818796)
(100.172 0.433283 0.00795711)
(100.273 0.599611 0.00538623)
(100.434 0.829581 -0.0017272)
(100.74 1.14736 -0.0175686)
(100.958 1.38287 -0.0290318)
(101.788 1.83506 -0.0699222)
(103.376 1.74681 -0.149496)
(105.147 -0.22689 -0.265317)
(104.712 -2.7987 -0.386323)
(102.953 -3.54265 -0.473692)
(101.756 -3.34063 -0.530159)
(101.136 -3.0041 -0.566846)
(100.801 -2.71846 -0.590423)
(100.605 -2.50226 -0.605692)
(100.476 -2.33854 -0.615619)
(100.387 -2.203 -0.620362)
(100.299 -1.89761 -0.775645)
(100.272 -1.85424 -0.774838)
(100.257 -1.81949 -0.77224)
(100.254 -1.79296 -0.7687)
(100.255 -1.77203 -0.764564)
(100.258 -1.75568 -0.760063)
(100.262 -1.74407 -0.755474)
(100.265 -1.73738 -0.751071)
(100.266 -1.73551 -0.747058)
(100.263 -1.73809 -0.743566)
(100.255 -1.74458 -0.740654)
(100.241 -1.7542 -0.738307)
(100.221 -1.76588 -0.736427)
(100.195 -1.77827 -0.7349)
(100.161 -1.78977 -0.733587)
(100.121 -1.79857 -0.732369)
(100.076 -1.80276 -0.731164)
(100.027 -1.80074 -0.729914)
(99.9651 -1.79243 -0.72844)
(100.004 0.0352332 0.00126266)
(100.02 0.0729185 0.00238683)
(100.049 0.116671 0.00306206)
(100.094 0.170681 0.00294066)
(100.162 0.239702 0.00147229)
(100.259 0.329426 -0.00227001)
(100.402 0.445975 -0.00984722)
(100.615 0.593773 -0.0238542)
(100.94 0.76927 -0.0485569)
(101.412 0.853536 -0.0901088)
(102.036 0.762262 -0.1548)
(102.7 0.250013 -0.246339)
(103.057 -0.713992 -0.355513)
(102.823 -1.53683 -0.46943)
(102.2 -1.84986 -0.563392)
(101.586 -1.86416 -0.630807)
(101.148 -1.78683 -0.676315)
(100.862 -1.68913 -0.706347)
(100.671 -1.59427 -0.725738)
(100.536 -1.50798 -0.737434)
(100.445 -1.431 -0.74337)
(100.386 -1.36064 -0.744923)
(100.348 -1.30164 -0.744716)
(100.323 -1.25186 -0.743565)
(100.309 -1.21159 -0.74163)
(100.3 -1.18024 -0.739209)
(100.295 -1.15677 -0.736672)
(100.29 -1.14038 -0.73429)
(100.286 -1.13043 -0.732217)
(100.28 -1.12621 -0.730526)
(100.272 -1.12689 -0.729235)
(100.26 -1.13153 -0.728301)
(100.244 -1.1391 -0.727635)
(100.223 -1.14843 -0.727086)
(100.196 -1.15829 -0.726495)
(100.165 -1.16736 -0.725682)
(100.128 -1.17429 -0.724473)
(100.087 -1.17787 -0.722714)
(100.042 -1.17725 -0.720245)
(99.9815 -1.1725 -0.716729)
(100.005 0.0223345 0.000783807)
(100.024 0.0461547 0.00128463)
(100.061 0.0737475 0.00114981)
(100.117 0.10749 -8.12074e-05)
(100.198 0.14994 -0.00316711)
(100.314 0.203592 -0.00914343)
(100.475 0.269888 -0.0196654)
(100.698 0.346514 -0.0371844)
(101 0.420929 -0.0651073)
(101.39 0.455446 -0.107581)
(101.844 0.395249 -0.168431)
(102.267 0.165989 -0.248791)
(102.491 -0.245595 -0.343111)
(102.385 -0.668794 -0.438916)
(102.01 -0.911833 -0.523056)
(101.564 -0.975199 -0.587916)
(101.193 -0.95176 -0.634475)
(100.923 -0.902501 -0.666933)
(100.729 -0.850015 -0.689011)
(100.586 -0.800663 -0.70321)
(100.48 -0.757077 -0.711364)
(100.405 -0.722219 -0.715064)
(100.351 -0.696189 -0.71602)
(100.313 -0.677112 -0.715112)
(100.288 -0.663739 -0.712845)
(100.272 -0.655114 -0.709724)
(100.261 -0.65028 -0.706243)
(100.254 -0.6485 -0.702786)
(100.249 -0.649309 -0.699611)
(100.243 -0.652354 -0.696866)
(100.236 -0.657264 -0.694605)
(100.227 -0.663654 -0.692795)
(100.214 -0.671077 -0.691324)
(100.197 -0.679046 -0.690021)
(100.175 -0.686955 -0.688719)
(100.148 -0.694223 -0.687162)
(100.117 -0.700225 -0.685116)
(100.082 -0.704395 -0.682398)
(100.044 -0.706325 -0.678875)
(99.9943 -0.705908 -0.674459)
(100.006 0.00764584 0.000545898)
(100.027 0.0157842 0.00077825)
(100.067 0.02518 0.000197158)
(100.128 0.0366018 -0.00153256)
(100.216 0.0508445 -0.0054477)
(100.339 0.0685873 -0.0124531)
(100.507 0.0898469 -0.0242143)
(100.729 0.11322 -0.0430197)
(101.015 0.133656 -0.0719556)
(101.357 0.139154 -0.113894)
(101.724 0.110303 -0.171211)
(102.041 0.0267752 -0.243794)
(102.209 -0.108982 -0.327083)
(102.15 -0.25109 -0.412058)
(101.886 -0.342335 -0.48883)
(101.533 -0.372407 -0.551284)
(101.204 -0.368689 -0.598156)
(100.943 -0.354703 -0.631707)
(100.747 -0.339373 -0.654987)
(100.599 -0.324845 -0.670272)
(100.488 -0.311864 -0.679366)
(100.407 -0.300956 -0.683801)
(100.349 -0.291656 -0.684987)
(100.309 -0.283356 -0.683968)
(100.283 -0.275727 -0.681672)
(100.266 -0.268701 -0.678681)
(100.256 -0.262279 -0.675443)
(100.249 -0.256514 -0.672325)
(100.244 -0.251498 -0.669583)
(100.239 -0.247306 -0.667358)
(100.233 -0.243948 -0.665689)
(100.225 -0.241371 -0.664523)
(100.214 -0.239458 -0.663722)
(100.198 -0.238035 -0.663052)
(100.178 -0.236853 -0.662532)
(100.153 -0.235683 -0.661757)
(100.124 -0.234289 -0.660441)
(100.091 -0.232471 -0.658383)
(100.054 -0.230184 -0.655427)
(100.002 -0.227847 -0.651446)
(99.9938 0.00566697 0.0111726)
(99.9727 0.0114728 0.0234201)
(99.9338 0.0175391 0.0379886)
(99.8761 0.0238611 0.0563121)
(99.7986 0.0301727 0.0799973)
(99.6996 0.0357445 0.110981)
(99.5784 0.0390345 0.151372)
(99.4376 0.0372898 0.203545)
(99.2857 0.0261545 0.269668)
(99.1403 -0.000191132 0.350761)
(99.0316 -0.0470331 0.445862)
(98.9964 -0.112477 0.550599)
(99.058 -0.179425 0.657184)
(99.208 -0.229767 0.757231)
(99.4066 -0.254347 0.84392)
(99.6102 -0.262108 0.915451)
(99.7941 -0.260886 0.972745)
(99.9511 -0.254987 1.01767)
(100.081 -0.247166 1.05194)
(100.185 -0.239424 1.07723)
(100.268 -0.232385 1.09515)
(100.332 -0.225993 1.10754)
(100.381 -0.220264 1.11614)
(100.417 -0.215646 1.12203)
(100.443 -0.212227 1.1259)
(100.462 -0.20981 1.12834)
(100.474 -0.20828 1.12989)
(100.482 -0.207561 1.13115)
(100.486 -0.207554 1.13265)
(100.488 -0.208153 1.13468)
(100.489 -0.209281 1.13735)
(100.491 -0.210879 1.14056)
(100.495 -0.212872 1.14411)
(100.503 -0.215167 1.14757)
(100.516 -0.217633 1.15031)
(100.534 -0.220134 1.15159)
(100.559 -0.222501 1.15053)
(100.592 -0.224531 1.14625)
(100.634 -0.22605 1.13774)
(100.698 -0.227014 1.124)
(99.9939 0.0168461 0.0109378)
(99.9734 0.0341529 0.0229539)
(99.9352 0.0523826 0.0373155)
(99.8781 0.0716629 0.0554543)
(99.8004 0.0913959 0.0790389)
(99.6989 0.109668 0.110161)
(99.5711 0.122173 0.151269)
(99.4169 0.120785 0.205215)
(99.2417 0.0919525 0.274883)
(99.0623 0.0164335 0.362348)
(98.9158 -0.121754 0.467302)
(98.8632 -0.316728 0.58598)