/*--------------------------------*- C++ -*----------------------------------*\
| =========                 |                                                 |
| \\      /  F ield         | OpenFOAM: The Open Source CFD Toolbox           |
|  \\    /   O peration     | Version:  2306                                  |
|   \\  /    A nd           | Website:  www.openfoam.com                      |
|    \\/     M anipulation  |                                                 |
\*---------------------------------------------------------------------------*/
FoamFile
{
    version     2.0;
    format      ascii;
    arch        "LSB;label=32;scalar=64";
    class       volVectorField;
    location    "1.05";
    object      Force;
}
// * * * * * * * * * * * * * * * * * * * * * * * * * * * * * * * * * * * * * //

dimensions      [1 1 -2 0 0 0 0];

internalField   uniform (0 0 0);

boundaryField
{
    walls
    {
        type            calculated;
        value           uniform (0 0 0);
    }
    inlet
    {
        type            calculated;
        value           uniform (0 0 0);
    }
    outlet
    {
        type            calculated;
        value           uniform (0 0 0);
    }
    NASA
    {
        type            calculated;
        value           nonuniform List<vector> 
14179
(
(-0.0142678 -0.131251 6.601e-06)
(-0.0127097 -0.105106 4.64182e-06)
(-0.0657999 -0.532237 0.000661436)
(-0.100397 -0.807459 0.0025928)
(-0.0643932 -0.521385 0.00033525)
(-0.109424 -0.879937 0.00288213)
(0.228014 0.990022 -0.000320908)
(0.100112 0.502576 -6.75285e-05)
(0.660547 3.23942 0.00382469)
(0.104236 0.523288 -7.32441e-05)
(0.000715549 -3.02652e-05 -1.282e-07)
(-0.0178248 -0.145835 0.00047646)
(0.130807 0.653263 -0.00193445)
(-0.0354795 -0.322596 0.00117299)
(0.0620039 0.309376 -0.000889482)
(1.37874 0.930049 0.0028262)
(1.39137 0.922105 -0.000342864)
(0.0235018 0.132037 -4.65532e-05)
(0.159706 0.947685 -0.000119457)
(1.26108 0.835884 -0.00259726)
(-0.0168263 -0.2355 -7.79416e-06)
(-0.0209023 -0.194411 -0.000120305)
(-0.0192471 -0.267289 -0.000230919)
(-0.00839736 -0.0612124 2.7617e-06)
(-0.012879 -0.106562 1.91512e-05)
(-0.0090781 -0.0661739 1.65107e-05)
(-0.0128687 -0.10598 0.000369398)
(-0.0151218 -0.108352 0.000390069)
(-0.0132069 -0.120618 0.000420984)
(-0.0154289 -0.211755 0.00375133)
(0.047133 0.205838 1.64365e-05)
(0.0531379 0.250567 6.01896e-07)
(0.0571335 0.269407 -8.31958e-05)
(0.0464948 0.202532 -2.08821e-05)
(0.0626761 0.230022 -2.41741e-06)
(0.0659568 0.241694 6.40107e-06)
(0.0309325 0.112284 -4.75304e-07)
(0.0342212 0.124043 1.14879e-05)
(-0.00224277 -0.0106479 0.000151911)
(-0.0128755 -0.0626579 0.000682743)
(0.170845 0.623908 -0.00143723)
(0.100032 0.360645 -0.000445511)
(0.0996135 0.499949 -8.42064e-05)
(-0.00573647 -0.0403884 3.25482e-06)
(-0.00523714 -0.0368633 -1.63619e-06)
(0.158052 0.793773 -0.000137764)
(-0.00984712 -0.0681318 0.000278321)
(0.0972367 0.485425 -0.000834786)
(0.0904244 0.451839 -0.000901279)
(0.108203 0.442094 -0.000356323)
(0.0847725 0.315136 -2.0591e-05)
(0.0844128 0.313796 -4.74493e-05)
(-0.0638093 1.55755 -0.000162723)
(1.38834 0.923047 -0.0007419)
(-0.0566777 1.3927 8.40066e-05)
(-0.00266014 1.31428 -0.000127466)
(0.0623302 0.943082 2.53868e-05)
(0.0665708 1.00546 -0.000180877)
(-0.00233295 1.1029 -6.43396e-07)
(0.0953676 0.374942 -3.25107e-05)
(0.163963 0.97234 -0.000149736)
(0.00724135 0.0263067 2.80447e-05)
(-0.0227866 0.566056 -0.00103412)
(0.911542 0.622059 0.0755636)
(-0.000733121 0.532151 -0.00126524)
(0.0268672 0.407846 -0.00085131)
(0.127265 0.744831 0.00652413)
(-0.0144056 -0.144172 9.33128e-06)
(-0.0142106 -0.130807 1.2481e-05)
(-0.0987178 -0.794068 0.00254501)
(-0.0111757 -0.0886747 4.60899e-06)
(-0.0126879 -0.104933 9.81189e-06)
(1.30931 0.866838 -0.00333545)
(1.26064 0.834874 -0.00300092)
(0.346694 2.05551 -0.0072713)
(0.26137 1.54409 -0.00496053)
(-0.110883 -0.892821 0.00144786)
(-0.0569074 -0.354126 0.00119521)
(-0.0560229 -0.350891 0.00120428)
(-0.0432544 -0.253683 0.000879084)
(0.157422 0.679034 -0.00231876)
(0.17711 0.765706 -0.00255556)
(0.763641 1.31111 -5.31435e-05)
(0.764088 1.3099 -0.00032469)
(0.0996807 0.500327 -7.88848e-05)
(0.0908765 0.436632 -4.46177e-05)
(-2.17015e-05 -0.00161854 -9.13673e-07)
(0.00172141 0.00897642 -2.85904e-07)
(0.0017567 0.00917836 -2.20629e-06)
(-1.28341e-05 -0.00155707 1.60431e-07)
(0.104855 0.526427 -6.8082e-05)
(0.0953663 0.491866 -5.67608e-05)
(-0.0200333 -0.163722 0.000567126)
(-0.0135277 -0.0969323 0.000355482)
(-0.0203871 -0.145564 0.000502399)
(-0.0123631 -0.085246 0.000333007)
(-0.0181809 -0.124684 0.00038708)
(0.0856909 0.427553 -0.00145569)
(-0.0199842 -0.181804 0.000613019)
(-0.0245636 -0.337525 0.00134063)
(-0.0207193 -0.290998 0.000392428)
(0.0803816 0.401435 -0.00133811)
(1.37584 0.924007 -0.00268247)
(0.0954825 0.562795 -6.72245e-05)
(0.102089 0.570923 -4.30525e-05)
(0.103044 0.576005 -7.05287e-05)
(0.186592 1.29886 -0.000155243)
(0.107979 0.640408 -6.40067e-05)
(0.161882 0.960219 -9.69357e-05)
(0.0193231 0.0182469 1.8978e-05)
(0.357486 -0.131737 0.00358427)
(0.364435 -0.144487 0.00171529)
(0.012945 0.0124329 -3.60284e-05)
(-0.00711634 -0.0304351 0.000171162)
(0.0208006 0.0766506 -0.000201411)
(0.00166587 0.00551006 4.99799e-05)
(0.0207731 0.0835415 -0.000123082)
(-0.00986085 -0.0439722 0.000163578)
(-0.00228496 -0.0124723 0.000120975)
(0.00377101 0.0156254 -7.65747e-07)
(-0.0183246 -0.0885859 0.000297874)
(-0.00106533 0.729696 -0.00222112)
(0.0406707 0.607451 -0.00192506)
(-0.00155601 0.978464 -0.00303842)
(0.031675 0.479479 -0.00183493)
(-0.0345821 0.864578 -0.00282943)
(1.08971 0.733024 -0.00257922)
(-0.046869 1.15933 -0.0035665)
(0.109538 0.648218 -0.00308535)
(0.156865 0.614265 -0.00226399)
(0.117739 0.460423 -0.00145921)
(0.108732 0.396732 -0.00123668)
(0.154033 0.562741 -0.00176178)
(0.0634357 0.228869 -0.000711308)
(0.0866039 0.312996 -0.00104978)
(-0.0129987 -0.14649 1.23158e-06)
(-0.0167121 -0.233584 1.73104e-05)
(-0.0102286 -0.0788388 4.32615e-06)
(-0.00825077 -0.0601482 4.81429e-06)
(0.00049942 0.00122218 0.527478)
(-0.0129244 -0.101678 0.000360036)
(0.000470888 0.00116811 0.501548)
(-0.0143761 -0.109523 0.00039704)
(0.00077484 0.00147066 0.570865)
(-0.0129216 -0.128996 0.000515894)
(0.00101393 0.00191394 0.572112)
(-0.0120219 -0.13845 0.00133472)
(0.0529265 0.249559 -3.32157e-05)
(0.039433 0.179347 -1.01181e-05)
(0.0397485 0.180804 -2.44537e-05)
(0.0467177 0.203468 -1.98242e-05)
(0.0460007 0.20262 -1.23218e-05)
(0.0462386 0.203684 -2.51184e-05)
(0.062671 0.229887 -3.76273e-06)
(0.0242938 0.120839 -1.55831e-05)
(0.021757 0.110399 -1.41674e-05)
(0.0312549 0.113404 2.07781e-06)
(0.0261342 0.0919911 -4.2167e-07)
(-0.0066152 -0.0302461 0.000255796)
(-0.00555922 -0.0264546 0.000279312)
(0.000379095 0.000947868 0.319)
(0.000380569 0.000908685 0.312217)
(0.000370954 0.000888498 0.307897)
(0.0003113 0.00090026 0.354592)
(0.0946634 0.322567 -0.000147463)
(0.161308 0.564023 0.00303289)
(-1.7091e-05 0.000949965 0.335313)
(0.000301856 0.000414884 0.304895)
(0.00012133 0.000324165 0.107438)
(0.0826569 0.290156 -0.000335038)
(0.285732 0.663792 -5.80378e-06)
(0.168195 0.592973 5.54499e-05)
(0.166499 0.587035 -4.00836e-05)
(0.0816411 0.38131 -3.10013e-05)
(0.0823212 0.384514 -4.70908e-05)
(0.137649 0.657579 -5.87007e-05)
(0.08371 0.372776 -4.69333e-05)
(0.0853248 0.387287 -2.68424e-05)
(0.0859979 0.390269 -4.91454e-05)
(0.0834789 0.371869 -1.86075e-05)
(-0.00436237 -0.0309018 1.58484e-06)
(-0.00566546 -0.0398925 2.10401e-06)
(0.144793 0.767012 -6.29998e-05)
(0.261529 0.451055 0.0102959)
(0.000932836 0.00373438 0.853987)
(0.000347288 0.00188393 0.408266)
(0.0477861 0.138984 -9.75143e-05)
(-0.0118462 -0.0738795 0.000348227)
(-0.0118267 -0.0746478 0.000493027)
(0.000889212 0.00211919 0.670569)
(0.000303956 0.000456968 0.308942)
(0.0962668 0.494099 0.000132531)
(0.000482461 0.0004532 0.37238)
(0.139996 0.735802 0.00406208)
(0.000514784 0.0011353 0.344681)
(0.000368041 0.000939557 0.325845)
(-0.000359994 0.000649818 0.34843)
(6.96351e-05 0.000437516 0.112139)
(0.0806425 0.38523 -0.000800068)
(0.103312 0.47996 5.63573e-05)
(0.000433239 0.000327798 0.205018)
(9.6093e-05 0.000531532 0.107505)
(0.170008 0.714471 0.000617784)
(0.084794 0.315211 -2.71991e-05)
(0.0807789 0.309229 -2.57949e-05)
(0.0963922 0.39296 -4.23223e-05)
(0.0676334 0.27241 -1.21693e-05)
(-0.868403 2.77623 -0.021305)
(-0.0591528 1.44893 -5.81401e-05)
(-0.185477 1.73355 0.000753704)
(0.0635531 0.95943 -9.78854e-05)
(0.046922 1.00404 -5.16968e-05)
(-0.00237051 1.16518 -2.46848e-05)
(0.0266004 1.0059 -3.10144e-05)
(0.100562 1.10389 -9.70063e-05)
(0.122832 1.5864 -8.57518e-05)
(0.124502 1.60707 -0.000128173)
(0.0997262 1.0953 -8.06601e-05)
(0.119788 1.22381 -0.000132487)
(0.128691 1.19767 -2.5888e-05)
(0.132489 1.23318 -0.000165639)
(0.117405 1.1993 -2.70806e-05)
(0.0687376 0.284892 -2.79575e-05)
(0.0619409 0.24584 -2.33462e-05)
(0.0954129 0.37499 -2.69733e-05)
(0.115661 0.783375 -0.000120343)
(0.117383 0.739234 -7.70504e-05)
(-0.00039705 0.000763012 0.560553)
(0.000830401 0.00311201 0.882912)
(0.000882455 0.00261852 0.000134396)
(0.000306271 0.00337348 0.730669)
(0.00181577 0.00608043 0.000123836)
(0.000427247 0.0102421 0.272874)
(-0.0601851 0.577463 -0.00161151)
(0.00736102 -0.00150868 1.739)
(0.000338116 0.000763081 0.302239)
(0.0140973 0.515244 -0.00128492)
(0.000723744 0.000277478 0.243565)
(0.0231046 0.483641 -0.00108112)
(0.0610578 0.525334 -0.00128522)
(0.0608204 0.515807 -0.00124051)
(0.000350283 0.00062073 0.2428)
(0.000378322 0.000679078 0.267078)
(0.0572235 0.527957 -0.00118501)
(0.0519911 0.524507 -0.000888742)
(0.0470238 0.51467 0.000435653)
(2.20445e-05 -0.000385503 0.221645)
(-0.0190331 -0.104483 0.001267)
(0.000135029 0.00114581 0.497587)
(0.0916066 0.509428 -0.000841853)
(0.000371602 0.00091079 0.317206)
(0.000374503 0.000915944 0.318658)
(0.481471 -0.19181 -0.0037947)
(0.228559 0.216109 0.00202294)
(0.000182764 0.0001745 0.0805641)
(-0.0532067 -0.523225 0.00112399)
(-0.0700092 -0.565513 0.00122292)
(-0.0554691 -0.544948 0.00148634)
(-0.0703873 -0.568517 0.00125534)
(-0.0750389 -0.605412 0.00166179)
(-0.0583067 -0.572363 0.0017409)
(-0.0819156 -0.660118 0.0020206)
(0.179904 0.778609 -0.00260176)
(0.449702 2.202 -0.00714418)
(0.183353 0.793943 -0.00264232)
(0.429138 2.10075 -0.00684308)
(-0.0644956 -0.522087 0.000377913)
(-0.0425288 -0.265212 0.000873307)
(-0.104726 -0.84197 0.00271766)
(-0.0483216 -0.300886 0.000995249)
(1.39018 0.921357 -0.000776568)
(1.39111 0.921926 -0.000366699)
(0.238067 1.03358 -0.000420464)
(0.615193 3.01793 -0.00186107)
(0.587607 2.88308 -0.00121777)
(0.225005 0.976547 -0.000605962)
(0.428243 2.53905 -0.00106029)
(0.474684 2.81367 -0.00183785)
(0.000206584 -0.00204758 2.23543e-06)
(0.000687096 0.00030393 3.08874e-07)
(0.0233932 0.132512 -8.91519e-05)
(0.0238625 0.134664 -5.81479e-05)
(0.0471246 0.204363 -0.000548434)
(0.0344027 0.156104 -0.000416319)
(0.0572108 0.248909 -0.000708689)
(0.0262265 0.118067 -0.000281231)
(-0.108589 -0.873825 0.00286343)
(-0.0692869 -0.503493 0.00165467)
(0.0152505 0.0710231 -0.000108193)
(-0.0120155 -0.066362 0.000277045)
(0.0641236 0.233823 -0.000797563)
(0.072115 0.26293 -0.000873392)
(0.0348733 0.125707 -0.000430764)
(0.0403239 0.145347 -0.000483407)
(0.305879 1.38391 -0.000490812)
(0.190646 0.827138 -0.000134517)
(0.33815 1.59901 -0.000614315)
(0.142433 0.714821 -0.000167353)
(-0.0184418 -0.155304 0.000180216)
(-0.0416742 -0.309189 0.000341523)
(-0.00678444 -0.0496179 -9.49864e-06)
(0.00151058 0.00417583 -2.63297e-06)
(-0.0173627 -0.119317 4.04263e-05)
(-0.0230294 -0.161606 9.10868e-05)
(0.0971777 0.39736 0.000120143)
(0.0840899 0.312629 -0.000107326)
(0.0842715 0.313281 -6.54945e-05)
(0.10865 0.44578 -0.000738941)
(0.165958 0.729014 -0.000244742)
(0.142582 0.657128 -9.44149e-05)
(0.173343 0.762055 -0.000257297)
(0.182572 0.851485 -0.000109151)
(-0.00283933 1.373 -0.000149603)
(0.06793 1.02372 -0.000375814)
(-0.0029928 1.40536 -0.000433641)
(0.0670654 1.01191 -0.000195039)
(-0.0654699 1.59897 -0.000181576)
(1.39006 0.922516 -0.000421341)
(-0.0664612 1.62329 -0.000480066)
(0.459572 3.94092 -0.00202598)
(0.0938107 0.368622 -7.21921e-05)
(0.0838101 0.329349 -0.000114069)
(0.0674942 0.247476 -8.62855e-05)
(0.0701442 0.257102 5.77182e-06)
(0.0576157 0.302079 -0.000141759)
(0.185409 0.915241 -0.00119933)
(0.0226722 0.126512 -7.87129e-05)
(0.0481917 0.25867 -9.03376e-05)
(0.805646 5.04188 0.00199868)
(0.373884 2.49804 0.000332163)
(0.0398912 0.14467 -5.43593e-05)
(0.0390401 0.141548 1.5884e-05)
(1.24258 0.825524 -0.00153478)
(0.0899181 0.622571 -0.00204546)
(0.25117 0.235596 -0.000720667)
(0.496512 -0.20587 0.000262387)
(0.237932 0.223875 -0.000765486)
(0.51786 -0.21509 8.2198e-06)
(0.0632346 0.231762 -4.98794e-07)
(0.0290557 0.102126 1.24016e-05)
(0.0318086 0.11534 6.68235e-06)
(0.285656 0.663627 -2.50093e-05)
(0.275769 0.809528 -9.41043e-05)
(0.000765611 0.00239254 0.721852)
(0.000304757 0.0011883 0.359978)
(0.000479127 0.000469543 0.381653)
(-0.197717 1.83251 -0.0002113)
(-0.0616019 1.50561 -7.0359e-05)
(1.38421 0.923664 -0.00142879)
(0.0316773 0.0299559 2.73943e-05)
(0.364059 -0.149627 0.000136938)
(0.368498 -0.149816 0.000592885)
(0.0318711 0.0300924 1.68168e-05)
(0.000452596 0.0012338 0.539052)
(0.000357292 0.00063046 0.377559)
(0.000335754 0.000756941 0.339259)
(0.000532299 0.00116696 0.36157)
(-0.0894955 -0.720538 0.00227451)
(1.34454 0.890252 -0.00343337)
(1.32951 0.880273 -0.00339357)
(1.3058 0.864532 -0.00332757)
(1.32802 0.879279 -0.00339025)
(0.39931 1.95367 -0.00638403)
(0.176662 0.763971 -0.00255627)
(0.178609 0.772874 -0.00258402)
(0.421434 2.06286 -0.00672966)
(0.270675 1.59933 -0.00517512)
(0.289614 1.71155 -0.00549889)
(-0.0248035 -0.146547 0.000497704)
(-0.0316561 -0.18619 0.000631966)
(-0.055779 -0.346957 0.00116099)
(-0.0503657 -0.313476 0.00104001)
(-0.041367 -0.242529 0.000831742)
(-0.0342086 -0.200958 0.000683573)
(0.253588 2.15738 -0.00685103)
(0.240446 2.04483 -0.0065926)
(0.0240059 0.0885754 -0.000244034)
(0.0223697 0.0903114 -0.000277857)
(0.0338074 0.137386 -0.00019643)
(0.0320006 0.118317 -0.000351927)
(0.00110897 0.00363081 5.95031e-05)
(0.024395 0.104004 -0.000181696)
(0.0336746 0.1452 -0.000349941)
(0.0192628 0.0852326 -0.000133816)
(0.0399296 0.147819 -0.000455883)
(0.043772 0.178426 -0.000301062)
(0.0342554 0.126708 -0.000381904)
(0.0425596 0.635393 -0.00200054)
(-0.00164089 1.02195 -0.00317315)
(-0.00183376 1.12693 -0.00349684)
(0.0469149 0.700681 -0.00221073)
(-0.054272 1.34123 -0.00413247)
(1.29592 0.857949 -0.00329279)
(-0.0567648 1.40247 -0.00432399)
(-0.0487085 1.20453 -0.00370919)
(-0.0530639 1.31157 -0.00404123)
(1.29227 0.855524 -0.0032837)
(-0.00188832 1.15551 -0.00358491)
(0.0512578 0.766664 -0.00241118)
(-0.00199593 1.21184 -0.00376148)
(0.0482434 0.721008 -0.00224608)
(0.226934 1.34109 -0.00417697)
(0.411694 2.56128 -0.0103365)
(0.237907 1.58467 -0.00511422)
(0.247758 1.46296 -0.00479428)
(0.405768 2.53059 -0.00809567)
(0.378106 2.35715 -0.00771041)
(0.196105 1.30385 -0.00531887)
(-0.0811997 -0.596152 0.00153648)
(-0.101737 -0.818833 0.00273128)
(-0.0667383 -0.443051 0.00147233)
(-0.0570592 -0.355546 0.00122094)
(-0.0801517 -0.537464 0.00169423)
(-0.0533342 -0.333146 0.00117135)
(-0.024925 -0.138608 0.000511818)
(-0.0451022 -0.264934 0.000943706)
(0.00189868 0.00297908 0.000212007)
(-0.0477472 -0.281738 0.00100833)
(0.232053 1.04273 -0.00363227)
(0.180388 0.779436 -0.00257917)
(0.239148 1.12695 -0.00370611)
(0.178525 0.771627 -0.00256279)
(0.226539 1.02136 -0.00338042)
(0.242047 1.1397 -0.00413168)
(0.369046 1.80372 -0.00606256)
(0.105775 0.413558 -0.00132433)
(0.0898746 0.351312 -0.00115718)
(0.0957598 0.349302 -0.00110734)
(0.0758245 0.276462 -0.000908564)
(0.0873282 0.34139 -0.00113812)
(0.0814102 0.318322 -0.00107703)
(0.0557293 0.201002 -0.000634408)
(0.0428715 0.154535 -0.000507868)
(0.11944 0.276843 -0.00085214)
(0.100906 0.233776 -0.000682411)
(-0.0206803 -0.156728 0.000550226)
(-0.0182415 -0.130458 0.000463752)
(0.0812507 0.415314 -0.00164928)
(0.0859229 0.428898 -0.00137691)
(0.124081 0.655076 -0.00275194)
(-0.0191505 -0.189271 0.000570499)
(-0.0197818 -0.180364 0.000616088)
(-0.0170666 -0.187814 0.000321316)
(-0.0210489 -0.291938 0.000913325)
(0.077194 0.369476 -0.0013452)
(0.08179 0.408322 -0.00130029)
(-0.0047899 -0.0201035 0.000114708)
(0.00511792 0.0195381 4.82629e-05)
(-0.00153966 -0.00668223 8.8093e-05)
(0.0118175 0.0432358 -6.84473e-05)
(0.0175747 0.645096 -0.00199048)
(-0.0012823 0.843646 -0.00262515)
(0.02676 0.564487 -0.00182003)
(0.0359715 0.538388 -0.00177584)
(-0.104332 0.99207 -0.0044455)
(-0.0408846 1.01411 -0.00317402)
(1.20676 0.80592 1.12144e-05)
(-0.450579 1.4665 -0.00410985)
(-0.0447426 1.10767 -0.00342543)
(-0.139429 1.29785 -0.00392151)
(-0.0121633 -0.0635269 0.000266986)
(-0.00909481 -0.0467476 0.00020691)
(-0.0108795 -0.0556831 0.000241134)
(-0.0103745 -0.0543805 0.000233444)
(-0.0249293 -0.136824 0.000375975)
(0.000786314 0.00146685 0.384425)
(0.058341 0.392532 -0.00127842)
(0.0918405 0.636021 -0.00217911)
(0.0603123 0.40551 -0.0013812)
(0.126537 0.461852 -0.0014202)
(0.154213 0.563164 -0.00173759)
(0.0731042 0.263839 -0.000807772)
(0.0622198 0.217673 -0.00067575)
(0.0817527 0.286537 -0.00106772)
(0.0895557 0.323419 -0.00100922)
(0.453231 -0.189403 -0.00256194)
(0.214532 0.197015 0.000250782)
(0.262369 0.244042 -0.000546284)
(0.524646 -0.218877 -0.000820829)
(0.221357 0.959616 -0.00309273)
(0.582913 2.85698 -0.00893838)
(0.224149 0.971898 -0.00304707)
(0.555212 2.72086 -0.00861825)
(-0.0651205 -0.526908 0.000542126)
(-0.000929845 -0.00901241 1.37155e-05)
(-0.000408655 -0.00579903 7.72346e-06)
(0.264365 1.14725 -0.00115528)
(0.662606 3.25014 -0.0040623)
(0.259308 1.12503 -0.00140529)
(-0.0611415 -0.444508 0.00143391)
(0.178441 0.78482 -0.000473382)
(0.145155 0.670048 -0.00046276)
(0.178561 0.785386 -0.000545681)
(0.145126 0.669854 -0.00040674)
(0.0625628 0.229167 -0.000130453)
(0.0656222 0.240412 -0.000123838)
(-0.0323207 -0.237262 0.000155613)
(0.164621 0.81496 -0.000559694)
(0.0649572 0.341707 -0.000233431)
(0.0299354 0.108412 -5.99971e-05)
(0.0325609 0.117957 -6.2957e-05)
(1.39129 0.922153 -0.000317343)
(0.0176684 0.0165704 -3.58288e-07)
(0.334032 -0.138626 1.49158e-06)
(0.0218921 0.0205494 -7.46304e-06)
(0.33513 -0.139022 -2.40141e-06)
(-0.0209246 -0.132166 0.000418794)
(-0.0234727 -0.147859 0.000473498)
(-0.0404324 -0.252302 0.000829552)
(-0.0945082 -0.760503 0.00242309)
(-0.035316 -0.220794 0.000722224)
(0.18514 0.801835 -0.00266581)
(0.196739 0.85284 -0.0028178)
(0.100243 0.438701 -0.00136287)
(0.0751288 0.344833 -0.00106698)
(0.103847 0.454591 -0.00141571)
(0.0717256 0.329074 -0.00101382)
(0.0413812 0.188541 -0.000534282)
(0.0657926 0.286788 -0.000841132)
(0.0726841 0.317188 -0.000947919)
(0.047248 0.215754 -0.000630895)
(0.0581234 0.21262 -0.000754194)
(0.0565187 0.206612 -0.000732739)
(0.0623277 0.227301 -0.000780808)
(0.0584335 0.213195 -0.000743691)
(0.0130839 0.0667235 -0.000183851)
(0.066187 0.324635 -0.000984739)
(-0.0687338 -0.499342 0.00163538)
(0.0227658 0.108644 -0.000248308)
(-0.00823385 -0.0461708 0.000201613)
(0.0298505 0.143988 -0.00037464)
(0.0315252 0.114051 -0.000410532)
(0.0301583 0.109021 -0.000392433)
(0.0336508 0.121312 -0.000419239)
(0.0310412 0.111956 -0.000394431)
(1.3081 0.866031 -0.00332964)
(1.27446 0.843769 -0.0031664)
(0.129704 0.12218 -0.000453035)
(0.36232 -0.150435 0.000296918)
(0.372435 -0.154634 0.000306935)
(0.117522 0.110693 -0.000414268)
(0.473968 -0.196548 0.000338414)
(0.221355 0.20848 -0.000738341)
(0.207128 0.195146 -0.00069804)
(0.45437 -0.188527 0.000339603)
(0.00011888 -0.0100439 1.43334e-05)
(-5.44312e-05 -0.0227143 3.9596e-05)
(-0.052432 -0.515825 0.0009241)
(-8.86504e-05 -0.025213 5.54207e-05)
(-0.000172041 -0.0313596 5.53241e-05)
(-0.0683728 -0.552569 0.000997551)
(-0.0545566 -0.536182 0.0013452)
(-0.000109897 -0.0266583 7.52088e-05)
(-0.000165555 -0.030794 7.80867e-05)
(-0.0724687 -0.585014 0.00145738)
(-0.0728456 -0.588009 0.00148472)
(2.85508e-05 -0.0163835 5.50361e-05)
(-0.0571454 -0.561132 0.00164499)
(-0.000137612 -0.0286129 8.73658e-05)
(-0.0788385 -0.635622 0.00187506)
(1.36733 0.905473 -0.00340691)
(1.36406 0.903281 -0.00343092)
(1.36007 0.900609 -0.00344873)
(1.36567 0.904345 -0.0034386)
(0.210093 0.910904 -0.00295298)
(0.525851 2.57714 -0.00824393)
(0.545668 2.67413 -0.00848699)
(0.189318 0.820951 -0.00267302)
(0.18071 0.782224 -0.00261007)
(0.237899 1.07353 -0.00354572)
(0.268649 1.26731 -0.0041356)
(0.4432 2.16999 -0.00704937)
(0.182172 0.788688 -0.00262791)
(0.24519 1.10684 -0.0036407)
(0.25803 1.21686 -0.00398727)
(0.435682 2.13298 -0.00694542)
(1.38995 0.921148 -0.00152117)
(1.39295 0.923176 -0.00121917)
(1.39113 0.921974 -0.000837108)
(1.39357 0.923593 -0.00117205)
(0.472886 2.80313 -0.00206073)
(0.46315 2.74576 -0.00271657)
(0.000108344 -0.00262205 2.81381e-06)
(-0.0649046 -0.525221 0.000500022)
(-0.000228596 -0.00468872 6.07695e-06)
(0.0222756 0.126042 -0.000158242)
(0.0228084 0.129141 -0.000135498)
(0.023308 0.132044 -9.90872e-05)
(0.0229961 0.130234 -0.000127046)
(0.224322 0.973568 -0.000656991)
(0.251286 1.09068 -0.000993828)
(0.662856 3.25221 -0.00309346)
(-0.0555211 -0.368903 0.00119984)
(-0.0443656 -0.276524 0.000911686)
(-0.0647358 -0.470414 0.0015255)
(-0.0464161 -0.28915 0.000954913)
(-0.0602938 -0.400304 0.00130905)
(0.424481 3.63337 -0.00220713)
(0.445553 3.81339 -0.00193134)
(0.0840282 0.312401 -0.000122808)
(0.108702 0.446027 0.000391909)
(0.108789 0.446402 -0.000815987)
(0.0839245 0.312031 -0.000165741)
(0.141583 0.65282 -0.000323132)
(0.176926 0.777989 -0.000332646)
(0.178033 0.782972 -0.000405287)
(0.144606 0.667285 -0.000350199)
(0.108763 0.446299 0.000310431)
(0.0837787 0.311504 -0.000223056)
(0.10871 0.446083 -0.00089613)
(0.0838741 0.311849 -0.000181659)
(0.0697288 1.0541 -0.000369978)
(-0.00292001 1.365 -0.000490437)
(-0.00260578 1.20659 -0.000623177)
(0.0736852 1.11428 -0.000566171)
(-0.0573305 1.39907 -0.000762636)
(1.39004 0.92125 -0.000613597)
(-0.0520749 1.2708 -0.000854944)
(-0.0653354 1.59549 -0.000551717)
(-0.0598086 1.45972 -0.000722429)
(1.39061 0.921617 -0.000542944)
(-0.00250946 1.15464 -0.000646348)
(0.0794423 1.20162 -0.000834637)
(-0.00244907 1.07274 -0.000746259)
(0.0751047 1.13589 -0.000627555)
(0.320031 1.44812 -0.000573759)
(0.240293 1.04309 -0.000513278)
(0.598725 2.93729 -0.0015756)
(0.357389 1.68955 -0.00103322)
(0.345605 1.63444 -0.000629773)
(0.596526 2.92683 -0.00146481)
(0.234962 1.01985 -0.00058497)
(0.315565 1.42742 -0.000867159)
(0.0823359 0.323472 -0.000128158)
(0.0786018 0.308648 -0.000157294)
(0.0695164 0.254825 -9.94853e-05)
(0.0671561 0.246067 -0.000121221)
(0.077202 0.30311 -0.000164087)
(0.705917 4.4164 -0.00217973)
(0.453384 2.68761 -0.00133733)
(0.720288 4.5072 -0.00225948)
(0.432725 2.89367 -0.00171451)
(0.434331 2.90399 -0.00144048)
(0.468206 2.77547 -0.00154329)
(-0.0304655 -0.224361 9.98335e-05)
(-0.0187255 -0.127045 8.49774e-05)
(0.000344244 -0.00128068 1.61701e-06)
(-0.0179446 -0.122525 5.54105e-05)
(0.000396492 -0.00114116 1.53671e-06)
(0.0642545 0.337473 -0.000144066)
(0.162302 0.802616 -0.000343793)
(0.164673 0.814892 -0.000422624)
(0.0493438 0.265972 -0.000180737)
(0.0235054 0.13309 -7.87869e-05)
(0.0493821 0.26566 -0.000115835)
(0.0235487 0.133173 -6.76049e-05)
(0.0400289 0.145123 -6.20462e-05)
(0.0344541 0.124846 -6.52339e-05)
(0.0663297 0.241851 -0.000819003)
(0.0688039 0.250855 -0.000842174)
(0.0323123 0.112928 -0.000388133)
(0.036376 0.131117 -0.000445396)
(0.0382638 0.133732 -0.000444196)
(0.0380774 0.137244 -0.000461534)
(0.275282 0.808222 -0.000262412)
(0.275648 0.809195 -0.000163274)
(0.285901 0.664312 -0.000170784)
(0.285952 0.664412 -0.000145109)
(-0.20042 1.85722 -0.000255365)
(-0.0664816 1.62473 -0.000324091)
(1.39089 0.922257 -0.000333518)
(-0.861295 2.80097 -0.000694438)
(-0.0668536 1.63337 -0.000406724)
(-0.202094 1.8714 -0.000525318)
(0.0664953 0.243868 -4.36415e-05)
(0.0703634 0.25796 -7.98842e-07)
(0.0400958 0.145448 -1.95654e-05)
(0.0366047 0.128734 -4.89043e-05)
(0.0335259 0.117851 1.60408e-05)
(0.0412118 0.149449 9.88369e-06)
(0.419699 2.48353 -0.00783207)
(0.387845 2.29484 -0.00730618)
(-0.000199293 -0.00418347 2.62665e-05)
(-0.00307734 -0.0208397 8.01546e-05)
(-0.0278923 -0.175077 0.000567045)
(-0.0246019 -0.154813 0.000497085)
(-0.00806425 -0.0496972 0.000174865)
(-0.00437489 -0.0283481 0.00010436)
(1.34338 0.88949 -0.00343005)
(1.35363 0.896306 -0.00344916)
(1.36098 0.901205 -0.00345267)
(1.35441 0.896828 -0.00344953)
(-0.0223317 -0.132246 0.000449831)
(-0.0165101 -0.098564 0.000336762)
(0.349968 2.06962 -0.0065948)
(0.376486 2.22738 -0.00710084)
(-0.0930159 -0.748605 0.00237998)
(-0.0293555 -0.184089 0.000597413)
(-0.0335371 -0.20984 0.000685236)
(-0.00974331 -0.0594131 0.00020667)
(-0.0144509 -0.0866504 0.00029726)
(0.199281 0.863936 -0.00283354)
(0.516346 2.53045 -0.00813075)
(0.190895 0.827709 -0.00270079)
(0.480847 2.3557 -0.0076211)
(0.283285 2.41096 -0.00767214)
(0.291658 2.48264 -0.00790902)
(0.0642539 0.262654 -0.000483508)
(0.0520507 0.192926 -0.000610106)
(0.0548765 0.203441 -0.000645384)
(0.0603087 0.24643 -0.00108012)
(0.09521 0.416515 -0.0012883)
(0.0631062 0.289178 -0.000880756)
(0.0907774 0.396974 -0.0012215)
(0.0671829 0.308045 -0.00094474)
(0.0581992 0.215808 -0.000686506)
(0.0558179 0.206945 -0.000657383)
(0.0690691 0.28246 -0.000524353)
(-0.00231565 1.37444 -0.00426327)
(0.0575578 0.861451 -0.0027044)
(0.0588713 0.881229 -0.00276458)
(-0.00226097 1.34736 -0.00418035)
(-0.0640148 1.5803 -0.00486908)
(1.34036 0.887472 -0.00342216)
(-0.0647544 1.59831 -0.00492329)
(-0.00233476 1.38377 -0.00429024)
(0.0603476 0.903494 -0.00283106)
(-0.00236708 1.39708 -0.00432972)
(0.0593067 0.88779 -0.00278433)
(-0.0635782 1.56961 -0.0048381)
(1.3372 0.885377 -0.00341393)
(-0.062372 1.54005 -0.00474775)
(0.31747 2.70313 -0.00856334)
(0.31156 2.65259 -0.00841195)
(0.0417175 0.154474 -0.000479086)
(0.0459836 0.17035 -0.000533442)
(0.0538021 0.219675 -0.000954621)
(0.0508404 0.188422 -0.000594938)
(0.0584983 0.238985 -0.000433959)
(0.0474297 0.17573 -0.000551615)
(0.0792967 0.346352 -0.00104948)
(0.0577125 0.264215 -0.000796893)
(0.0845411 0.369479 -0.0011288)
(0.0529634 0.242228 -0.000721618)
(-0.0574379 1.41893 -0.00437619)
(-0.0597024 1.4746 -0.00454577)
(1.31638 0.871553 -0.00335692)
(0.0521022 0.779398 -0.00245181)
(-0.00203009 1.22787 -0.00381262)
(-0.00213409 1.28346 -0.0039827)
(0.0544483 0.814652 -0.00256073)
(-0.00216597 1.29975 -0.00403322)
(0.0569937 0.85294 -0.00267888)
(0.055247 0.826666 -0.00259701)
(-0.00223627 1.33571 -0.00414582)
(-0.0603702 1.49098 -0.00459639)
(1.32044 0.874245 -0.00336717)
(-0.0618859 1.52817 -0.00471288)
(0.0759404 0.29746 -0.00102304)
(0.0761776 0.298255 -0.00102636)
(0.0560067 0.204555 -0.000723448)
(0.0561652 0.205273 -0.000727957)
(0.0762403 0.298817 -0.00102622)
(0.242261 1.14191 -0.00375879)
(0.406467 1.98905 -0.0065257)
(0.227832 1.02741 -0.00340423)
(0.176745 0.764503 -0.0025654)
(0.17778 0.769147 -0.00257641)
(0.234991 1.06027 -0.00350562)
(0.414547 2.02894 -0.00662208)
(0.253859 1.19706 -0.00392853)
(0.0775826 0.303517 -0.00103948)
(0.0771931 0.302042 -0.00103614)
(0.0761969 0.298283 -0.0010262)
(0.0560885 0.204807 -0.000723381)
(0.0576186 0.210262 -0.000736395)
(0.264008 1.75871 -0.00564072)
(0.420695 2.6241 -0.00843956)
(0.276887 1.63609 -0.0052715)
(0.283588 1.67583 -0.00539622)
(0.451619 2.81748 -0.00902958)
(0.441832 2.75635 -0.00884468)
(0.270765 1.80387 -0.00577019)
(-0.00246263 -0.0161134 8.2196e-05)
(-0.0269194 -0.15879 0.000538815)
(0.0497545 0.24298 -0.0007123)
(0.00494853 0.0236958 -3.9884e-05)
(-0.029379 -0.173019 0.000586991)
(-0.0101927 -0.0581381 0.000223595)
(-0.0659699 -0.437788 0.00144739)
(-0.0540364 -0.33613 0.00112114)
(-0.0659072 -0.478848 0.00155698)
(-0.0522534 -0.32511 0.00107993)
(-0.0619033 -0.410901 0.00134751)
(0.462915 2.88815 -0.00924553)
(0.472237 2.94647 -0.00942004)
(0.294315 1.96131 -0.00624586)
(0.288344 1.92139 -0.00612554)
(-0.0220736 -0.122888 0.000449513)
(-0.038964 -0.228526 0.000779613)
(0.0430918 0.209866 -0.000600236)
(0.00163119 0.00614744 1.92756e-05)
(0.0368247 0.178703 -0.000495293)
(-0.0365591 -0.214571 0.000729766)
(-0.013231 -0.0746594 0.000279792)
(0.0295207 0.106601 -0.000382363)
(0.0298402 0.107842 -0.000388154)
(0.0295517 0.106684 -0.00038195)
(0.0304927 0.110001 -0.000389527)
(0.115607 0.338456 -0.00104334)
(0.14126 0.413777 -0.00131017)
(0.188708 0.437728 -0.00143652)
(0.183382 0.425363 -0.00139402)
(0.156106 0.362041 -0.00117468)
(0.164209 0.380861 -0.00124347)
(0.148207 0.43418 -0.00138173)
(-0.595124 1.93839 -0.00570484)
(1.3026 0.862382 -0.00331063)
(-0.0560358 1.38457 -0.00426793)
(-0.167307 1.5564 -0.00474479)
(-0.5676 1.84892 -0.00550112)
(-0.498326 1.62269 -0.00468069)
(-0.516273 1.68147 -0.00495377)
(-0.14465 1.34638 -0.00410024)
(-0.050216 1.24159 -0.00382142)
(1.28488 0.850607 -0.00323998)
(-0.550437 1.79315 -0.00528232)
(0.0879201 0.320631 -0.00102465)
(0.0810406 0.295521 -0.000960909)
(0.143126 0.134836 -0.000495628)
(0.398379 -0.165408 0.000331851)
(0.384709 -0.15973 0.000318974)
(0.157022 0.147939 -0.000537719)
(0.0544903 0.190574 -0.000598715)
(0.0508168 0.18323 -0.000583392)
(0.0462724 0.166818 -0.000541415)
(0.0410233 0.143384 -0.000469807)
(0.188341 0.177462 -0.00063771)
(0.415161 -0.172366 0.00033679)
(0.432907 -0.179697 0.00034354)
(0.172878 0.16289 -0.000586226)
(0.667696 3.27511 -0.0043658)
(0.254814 1.10546 -0.00146008)
(0.230287 0.999122 -0.00152276)
(0.635204 3.11522 -0.00478659)
(0.233896 1.01452 -0.00241587)
(0.610307 2.99243 -0.00669121)
(0.254112 1.10217 -0.00246314)
(0.612002 3.00053 -0.00709829)
(0.189225 0.820598 -0.00235302)
(0.666478 3.26736 -0.00912281)
(0.21217 0.92017 -0.00260515)
(0.666694 3.26807 -0.00932573)
(-0.0655827 -0.530535 0.000622593)
(-0.0332871 -0.24406 0.000306712)
(-0.0468177 -0.341276 0.00105393)
(-0.0597843 -0.434725 0.00139973)
(-0.0973362 -0.783053 0.00250443)
(-0.0528616 -0.519928 0.00104089)
(-0.00534111 -0.161454 0.000345357)
(-0.00531206 -0.160666 0.00031392)
(6.74764e-05 -0.0137393 3.14106e-05)
(-4.669e-05 -0.0221422 3.94589e-05)
(-0.00123564 -0.0108968 1.68594e-05)