/*--------------------------------*- C++ -*----------------------------------*\
| =========                 |                                                 |
| \\      /  F ield         | OpenFOAM: The Open Source CFD Toolbox           |
|  \\    /   O peration     | Version:  2306                                  |
|   \\  /    A nd           | Website:  www.openfoam.com                      |
|    \\/     M anipulation  |                                                 |
\*---------------------------------------------------------------------------*/
FoamFile
{
    version     2.0;
    format      ascii;
    arch        "LSB;label=32;scalar=64";
    class       volScalarField;
    location    "1.05";
    object      p;
}
// * * * * * * * * * * * * * * * * * * * * * * * * * * * * * * * * * * * * * //

dimensions      [0 2 -2 0 0 0 0];

internalField   nonuniform List<scalar> 
111542
(
59.7933
61.138
64.3277
69.5306
76.8301
86.4445
98.5375
113.138
129.743
146.909
162.052
171.137
170.115
157.815
137.329
114.364
92.8499
74.2513
58.7154
46.1285
36.1431
28.4565
22.679
18.2927
14.9603
12.4067
10.3517
8.75883
7.57328
6.66356
5.94354
5.35448
4.90647
4.52731
4.16409
3.7742
3.30412
2.7494
2.01064
0.999751
58.7462
60.0519
63.2103
68.3525
75.6435
85.4064
98.0164
113.724
132.352
152.808
172.354
185.423
184.41
168.046
142.186
115.443
91.9243
72.2807
56.3015
43.657
33.9163
26.5596
21.0589
17.0121
13.9684
11.6012
9.74378
8.31259
7.21672
6.36016
5.67624
5.12262
4.67263
4.28444
3.91703
3.53191
3.08576
2.53421
1.80872
0.85459
56.672
57.9115
60.9279
65.8867
73.0628
82.9721
96.3299
113.944
136.468
163.726
192.344
213.646
213.437
187.815
151.56
118.351
91.0209
69.2643
52.3921
39.6006
30.1578
23.4804
18.6781
15.1552
12.2836
9.94044
8.16131
6.85796
5.89108
5.15851
4.59868
4.16854
3.8315
3.55283
3.29618
3.0243
2.69306
2.24737
1.61693
0.730629
53.6216
54.7336
57.4539
61.9935
68.7387
78.4221
92.1973
111.766
139.534
178.742
213.879
256.429
261.826
220.726
168.356
127.705
94.6102
69.4228
50.9378
37.4627
23.6796
17.5655
15.0545
13.5027
11.4126
9.29802
7.62676
6.37645
5.4074
4.63979
4.03564
3.56255
3.18887
2.88273
2.61417
2.35103
2.04919
1.64877
1.06096
0.176822
49.704
50.6051
52.8224
56.5823
62.3237
70.8959
83.7485
103.309
133.609
178.518
255.578
341.774
365.372
257.489
172.684
123.417
83.7646
57.054
39.5276
28.2688
21.0576
6.43648
5.90857
6.45272
5.69723
4.75326
4.06483
3.54839
3.12226
2.77614
2.50939
2.30882
2.15838
2.03914
1.9354
1.82796
1.68417
1.45028
1.01129
0.0838232
45.1149
45.7134
47.1977
49.7522
53.751
59.9309
69.6247
85.2896
111.692
166.492
260.268
455.149
620.446
249.049
175.671
115.198
67.4145
40.9825
25.6213
16.3549
14.3983
12.3744
11.8005
7.46081
4.38924
2.92437
2.17227
1.65337
1.26886
1.00825
0.845786
0.748989
0.694442
0.66653
0.653809
0.645363
0.627414
0.588591
0.536073
0.596645
40.1459
40.3691
40.9302
41.9131
43.4951
46.0137
50.0504
56.5858
67.3062
106.677
182.261
411.948
1952.26
-416.387
216.841
79.1658
31.3218
15.6565
7.52052
-1.33906
-6.11427
14.1752
14.2178
8.97634
5.63959
4.2729
3.61748
3.12749
2.73528
2.44953
2.24872
2.10205
1.98991
1.89936
1.82243
1.75243
1.67534
1.58425
1.47784
1.40275
35.1586
34.9843
34.5429
33.7965
32.6723
30.993
28.3481
23.7795
14.8781
16.9407
-0.485637
-163.653
-1007.44
-1046.69
-312.429
-100.953
-46.0533
-25.9054
-16.7512
-10.3827
-3.77417
-8.29177
-6.54197
-4.91088
-3.99179
-3.03796
-2.09435
-1.31812
-0.70755
-0.210094
0.205034
0.550235
0.834081
1.06306
1.2414
1.36845
1.42973
1.39554
1.2029
0.737097
30.5738
30.0239
28.6376
26.2759
22.6644
17.2403
8.97449
-4.03721
-25.4357
-48.9378
-123.02
-268.291
-478.905
-506.77
-320.449
-175.04
-100.406
-61.213
-39.2422
-25.2938
-15.4161
-8.92654
-4.90199
-1.9229
-0.104155
1.01812
1.80535
2.36318
2.73644
2.97716
3.12844
3.21631
3.25488
3.25083
3.20399
3.10752
2.93778
2.64758
2.14565
1.25136
26.7774
25.9081
23.7541
20.1025
14.5665
6.41494
-5.56438
-23.3485
-50.2258
-91.8101
-149.978
-223.067
-288.59
-296.558
-238.736
-165.557
-110.313
-74.8558
-51.8127
-35.8137
-24.4969
-17.0475
-12.0015
-8.36411
-5.77803
-3.93211
-2.53678
-1.44159
-0.579992
0.0972115
0.633154
1.05886
1.39258
1.64339
1.81082
1.88894
1.85574
1.67041
1.27514
0.625621
24.0726
22.9848
20.2995
15.7823
9.00428
-0.766631
-14.64
-34.1115
-61.0464
-97.2972
-142.791
-192.263
-230.921
-238.019
-207.563
-158.793
-114.48
-82.0964
-59.2903
-42.6285
-30.2354
-21.1709
-14.5129
-9.6026
-5.99553
-3.35931
-1.41861
0.0215716
1.08663
1.86534
2.42687
2.82294
3.08838
3.24296
3.28672
3.2313
3.05431
2.71039
2.12834
1.17888
22.6672
21.4769
18.512
13.5871
6.19978
-4.28839
-18.9001
-38.7819
-65.0884
-98.1606
-136.467
-174.561
-202.459
-208.621
-188.96
-153.071
-115.698
-85.2995
-62.6379
-45.673
-32.8333
-23.2318
-16.1768
-11.0242
-7.30263
-4.60067
-2.62148
-1.15596
-0.0623159
0.755571
1.36649
1.81953
2.14869
2.3777
2.45288
2.45026
2.32911
2.04008
1.53377
0.75659
59.1853
60.4792
63.594
68.63
75.6881
84.9799
96.7017
110.84
126.898
143.522
158.197
166.968
165.838
153.818
133.904
111.598
90.736
72.6497
57.5033
45.1837
35.432
27.8953
22.1748
17.8641
14.5844
12.0332
10.0227
8.47094
7.29833
6.40631
5.71655
5.17551
4.749
4.39015
4.05483
3.70199
3.28712
2.76234
2.04818
1.04431
58.1507
59.4215
62.4863
67.4639
74.5181
83.9648
96.1743
111.385
129.433
149.282
168.27
181.024
179.732
163.671
138.513
112.588
89.791
70.6878
55.0992
42.7398
33.2081
25.9662
20.5196
16.527
13.534
11.2024
9.38128
7.98446
6.91824
6.09312
5.4446
4.92894
4.51198
4.1561
3.82463
3.47986
3.07965
2.57052
1.88102
0.930518
56.1081
57.317
60.2393
65.0369
71.9782
81.5655
94.4967
111.563
133.416
159.906
187.73
208.344
208.093
182.888
147.558
115.412
88.9348
67.7539
51.2585
38.7304
29.4833
22.8669
18.0557
14.5202
11.656
9.34996
7.63446
6.40997
5.5249
4.86991
4.38053
4.01203
3.72744
3.49312
3.27726
3.04591
2.75859
2.35815
1.76246
0.858031
53.1065
54.1915
56.8239
61.2104
67.7289
77.0934
90.4313
109.413
136.423
174.69
210.274
252.108
257.104
216.107
164.796
125.246
92.9238
68.1921
49.9826
36.6827
22.7295
16.6111
14.2424
12.7807
10.6993
8.61159
7.01183
5.85458
4.97981
4.30032
3.77598
3.37278
3.05993
2.8072
2.58833
2.37538
2.13034
1.79276
1.26016
0.36014
49.254
50.133
52.2743
55.8991
61.4377
69.7203
82.1682
101.177
130.745
175.707
251.904
337.019
359.303
251.237
168.43
121.316
82.5509
56.1438
38.7062
27.4376
20.0623
4.33667
3.9581
4.7998
4.25489
3.54868
3.12819
2.86159
2.63961
2.44744
2.28887
2.15767
2.04815
1.9519
1.86286
1.77347
1.66345
1.48435
1.11491
0.22421
44.7474
45.3279
46.754
49.2033
53.0442
58.9996
68.3836
83.6359
109.521
164.319
257.957
451.587
614.075
240.775
169.543
114.759
67.3329
40.8437
25.3482
15.9018
13.9425
10.6138
10.3295
6.06721
3.19578
2.00926
1.51349
1.19556
0.957298
0.798347
0.704526
0.653356
0.631283
0.629295
0.643045
0.669601
0.706202
0.751447
0.812412
0.95177
39.8766
40.0829
40.6086
41.5264
43.0137
45.4057
49.284
55.6475
66.2491
105.681
181.577
412.778
1938.78
192.636
83.0159
32.5154
15.8003
7.26086
-2.43605
-7.28749
17.0767
15.7599
9.39936
5.62238
4.03626
3.21529
2.60314
2.13102
1.79637
1.56737
1.4072
1.29409
1.2141
1.16067
1.13034
1.11893
1.12528
1.15029
1.21148
34.9548
34.8026
34.3511
33.583
32.4358
30.7414
28.1102
23.6355
15.021
17.2562
0.640078
-158.608
-986.653
-1031.58
-307.919
-98.6241
-44.8796
-25.6083
-16.9261
-10.707
-3.63982
-8.0598
-6.60281
-5.17396
-4.20613
-3.17321
-2.20534
-1.43614
-0.839677
-0.356492
0.0461244
0.382734
0.663842
0.896878
1.08882
1.24254
1.34981
1.38281
1.26864
0.825228
30.4768
29.9432
28.5656
26.2256
22.6579
17.3182
9.21294
-3.50109
-24.3621
-47.7184
-120.265
-263.196
-470.794
-496.519
-314.494
-171.361
-98.2337
-60.0926
-38.7501
-25.1386
-15.2886
-8.93677
-5.04788
-2.19094
-0.40816
0.69691
1.4539
1.97689
2.32009
2.53718
2.67074
2.74676
2.77952
2.77668
2.74028
2.6665
2.5359
2.30419
1.88182
1.09274
26.7568
25.9003
23.7865
20.1922
14.7511
6.75859
-4.96106
-22.3254
-48.5324
-89.0842
-145.83
-217.173
-281.295
-288.772
-232.201
-161.021
-107.547
-73.3224
-51.0397
-35.5126
-24.4857
-17.1741
-12.2154
-8.61989
-6.0445
-4.19449
-2.79311
-1.69593
-0.837558
-0.167661
0.359108
0.775758
1.10258
1.35046
1.52222
1.61379
1.6062
1.46132
1.12431
0.553655
24.1127
23.0481
20.4085
15.969
9.32426
-0.243019
-13.8065
-32.819
-59.089
-94.4263
-138.753
-186.913
-224.596
-231.597
-201.928
-154.639
-111.756
-80.4556
-58.3699
-42.1822
-30.1065
-21.2427
-14.6961
-9.85817
-6.30021
-3.69498
-1.77302
-0.34574
0.708325
1.4769
2.02959
2.41853
2.67904
2.83249
2.88683
2.84511
2.69035
2.38358
1.86214
1.02151
22.7429
21.5607
18.6666
13.8135
6.59324
-3.67627
-17.9583
-37.3789
-63.0161
-95.2754
-132.616
-169.731
-196.93
-203.063
-184.074
-149.21
-112.993
-83.5922
-61.6319
-45.1443
-32.6238
-23.2364
-16.3187
-11.2678
-7.59182
-4.91213
-2.94473
-1.48496
-0.394724
0.420005
1.02737
1.47638
1.79997
2.01605
2.12338
2.13313
2.02661
1.76731
1.3152
0.646059
58.0455
59.2659
62.1954
66.9138
73.5185
82.2082
93.1682
106.372
121.352
136.853
150.482
158.525
157.287
145.817
126.987
105.977
86.3353
69.2435
54.8682
43.1366
33.8353
26.6115
21.0947
16.9445
13.8006
11.3585
9.4419
7.95567
6.81902
5.94942
5.27662
4.74861
4.32549
3.97105
3.64927
3.32245
2.94845
2.47497
1.8326
0.931438
57.0388
58.2401
61.1177
65.7784
72.3764
81.2069
92.6147
106.819
123.67
142.204
159.946
171.628
170.288
154.96
131.185
106.821
85.3788
67.3189
52.5168
40.7615
31.6911
24.7281
19.4788
15.6783
12.8561
10.6436
8.89154
7.52494
6.46396
5.63294
4.97543
4.45094
4.02573
3.66803
3.34672
3.02791
2.67195
2.22644
1.62345
0.789731
55.0551
56.1979
58.9368
63.4215
69.9043
78.8547
90.9266
106.867
127.306
152.138
178.261
197.725
197.031
172.851
139.507
109.393
84.5164
64.4704
48.7809
36.8777
28.1941
21.8076
17.1322
13.7867
11.1265
8.96485
7.31951
6.11346
5.21831
4.53964
4.02208
3.62675
3.32019
3.07385
2.86058
2.65224
2.4128
2.08865
1.59435
0.798779
52.1447
53.1682
55.6283
59.7161
65.7879
74.514
86.9566
104.705
130.058
166.192
201.321
241.394
245.661
205.647
156.716
119.496
88.8161
65.1603
47.6661
34.8861
21.1988
15.5916
13.6399
12.3195
10.2139
8.03721
6.322
5.04521
4.06246
3.29517
2.70552
2.26037
1.92811
1.67916
1.48991
1.33746
1.19142
0.999463
0.665073
0.0242223
48.41
49.24
51.2311
54.5902
59.7259
67.4213
79.0261
96.836
124.746
168.699
242.357
324.756
345.125
238.716
160.236
116.361
79.1952
53.5552
36.5127
25.4939
18.3682
2.54187
3.6292
5.11899
4.55577
3.61752
2.94404
2.44667
2.02628
1.67159
1.38539
1.16032
0.989538
0.863058
0.778076
0.732836
0.722591
0.718462
0.618761
0.0711107
44.0486
44.5991
45.9094
48.1498
51.6737
57.1683
65.8936
80.2139
104.827
158.597
250.793
441.01
597.269
225.298
161.965
112.273
65.7083
38.9999
23.3027
13.8273
11.9206
8.30374
8.1999
3.81028
0.578326
-1.02102
-1.83789
-2.36652
-2.72757
-2.94267
-3.04173
-3.06213
-3.01581
-2.9184
-2.77281
-2.57366
-2.30261
-1.92321
-1.34957
-0.3085
39.3395
39.5366
39.9913
40.7793
42.0755
44.2036
47.7304
53.6666
63.8517
102.855
178.749
410.462
1911.73
194.056
87.7452
34.1228
15.9782
6.76782
-3.75016
-11.9236
13.4659
11.5694
5.05273
1.50611
0.21545
-0.342818
-0.7215
-0.989131
-1.15047
-1.23306
-1.26594
-1.26517
-1.22971
-1.15677
-1.03484
-0.842709
-0.549701
-0.100994
0.577266
34.6126
34.448
33.9745
33.1666
31.9712
30.2372
27.6145
23.29
15.1856
17.8337
3.12657
-149.145
-968.339
-1005.76
-295.316
-91.5387
-41.5433
-24.4515
-16.912
-11.3344
-4.44019
-8.52851
-8.1197
-7.28396
-6.33481
-5.1715
-4.07645
-3.18924
-2.48355
-1.90568
-1.42183
-1.01308
-0.666005
-0.366608
-0.0961993
0.158086
0.4055
0.63446
0.781475
0.617233
30.2917
29.7658
28.4194
26.124
22.6405
17.4645
9.67277
-2.45122
-22.2174
-44.6775
-113.756
-251.153
-452.116
-476.773
-299.706
-162.225
-93.2551
-57.6575
-37.7392
-24.9249
-15.5199
-9.86042
-6.35925
-3.70602
-1.9845
-0.873464
-0.0730545
0.515037
0.931777
1.22203
1.42651
1.57084
1.67084
1.73659
1.77831
1.79888
1.78939
1.71649
1.49545
0.933954
26.7143
25.8897
23.8339
20.3507
15.0971
7.41583
-3.79022
-20.3122
-45.1517
-83.5292
-137.267
-204.967
-266.012
-273.134
-219.356
-152.214
-102.211
-70.326
-49.4732
-34.8611
-24.4881
-17.7141
-12.8696
-9.33865
-6.86256
-5.08072
-3.69267
-2.57322
-1.67677
-0.963045
-0.390149
0.0728044
0.446717
0.74178
0.96758
1.12403
1.19877
1.16028
0.954253
0.517374
24.1746
23.1434
20.5964
16.3142
9.92444
0.754856
-12.1963
-30.2874
-55.2121
-88.6773
-130.624
-176.212
-212.012
-218.796
-190.882
-146.433
-106.299
-77.0518
-56.3356
-41.0736
-29.6553
-21.2491
-14.9387
-10.2594
-6.84086
-4.33965
-2.47698
-1.07467
-0.0243412
0.753854
1.32545
1.74003
2.03216
2.22294
2.32512
2.34043
2.25666
2.0419
1.63805
0.936877
22.8633
21.7223
18.9286
14.2526
7.32189
-2.51087
-16.1397
-34.6194
-58.9504
-89.5214
-124.874
-160.017
-185.837
-191.834
-174.145
-141.496
-107.591
-80.0668
-59.432
-43.8611
-31.9891
-23.0547
-16.4245
-11.5476
-7.98466
-5.38716
-3.4745
-2.04303
-0.961167
-0.141428
0.479811
0.949149
1.29826
1.54508
1.69777
1.75563
1.70678
1.52382
1.17002
0.612289
56.476
57.5913
60.2512
64.5226
70.4881
78.3187
88.1699
100.002
113.381
127.167
139.192
146.107
144.693
134.053
116.851
97.764
79.9012
64.275
51.0561
40.2223
31.601
24.8399
19.5731
15.5303
12.4536
10.0867
8.25083
6.83795
5.76361
4.94974
4.3286
3.84862
3.47114
3.16362
2.89495
2.63251
2.33899
1.96763
1.45851
0.738709
55.5076
56.6056
59.215
63.427
69.3761
77.3194
87.5547
100.264
115.3
131.793
147.548
157.562
156.106
141.973
120.351
98.3163
78.864
62.3655
48.7726
37.9608
29.6124
23.0277
17.9008
14.1322
11.363
9.23062
7.56119
6.27078
5.28195
4.52172
3.93302
3.47363
3.11038
2.81447
2.55951
2.31775
2.05598
1.72893
1.27541
0.626806
53.6043
54.646
57.122
61.1606
66.9845
75.0072
85.8032
100.031
118.254
140.392
163.673
181.01
179.762
157.492
127.38
100.318
77.8186
59.5363
45.1644
34.3254
26.6535
20.3724
15.265
11.7376
9.22888
7.30251
5.84425
4.77473
3.98895
3.40232
2.9636
2.63814
2.39708
2.2146
2.07153
1.94778
1.81816
1.63801
1.32461
0.720082
50.8239
51.747
53.9579
57.6163
63.0389
70.8198
81.9025
97.7089
120.335
152.75
186.321
223.08
226.321
188.701
144.027
110.269
82.0723
60.2228
44.0237
32.2653
19.7882
14.3384
11.121
9.14801
7.20436
5.43519
4.08854
3.10977
2.37052
1.7976
1.35815
1.03141
0.793046
0.62088
0.507609
0.445774
0.42644
0.419017
0.340859
-0.0212008
47.2364
47.9957
49.7684
52.7424
57.2852
64.0951
74.3833
90.2263
115.228
156.673
224.987
302.067
320.104
219.045
148.467
108.261
73.1424
48.9108
32.8346
22.4911
15.6417
-1.72754
-0.239412
1.8087
1.69128
1.05284
0.573191
0.212431
-0.104101
-0.378805
-0.604974
-0.775839
-0.900289
-0.981059
-1.00606
-0.959357
-0.816824
-0.566505
-0.268571
-0.299439
43.0794
43.5771
44.7164
46.6518
49.7036
54.4892
62.1453
74.8429
96.9928
147.961
236.327
419.472
566.769
204.842
156.499
107.395
61.2888
35.0603
19.7961
10.4943
7.3425
-5.5261
-1.82582
-1.86478
-2.89139
-3.42168
-3.64159
-3.83153
-4.02806
-4.19656
-4.32232
-4.41678
-4.4628
-4.45817
-4.3837
-4.2053
-3.86312
-3.25083
-2.18594
-0.410824
38.6005
38.7699
39.1173
39.7132
40.7188
42.4241
45.3442
50.4373
59.5264
96.8268
171.224
403.846
1862.8
199.202
85.9029
32.6095
13.5437
3.65842
-6.48602
-14.3431
15.0107
11.8564
4.75832
0.760473
-1.13994
-2.2811
-3.12715
-3.75562
-4.19384
-4.48507
-4.66058
-4.7541
-4.77459
-4.70362
-4.51729
-4.16114
-3.53925
-2.48833
-0.778195
34.126
33.9463
33.4368
32.5664
31.2896
29.4688
26.7979
22.5724
15.0039
17.8688
5.64897
-133.552
-911.811
-969.911
-270.052
-81.442
-38.6393
-24.6092
-18.2356
-12.9816
-5.5664
-8.53521
-8.0955
-7.33559
-6.45857
-5.4583
-4.5323
-3.78484
-3.20056
-2.73656
-2.36135
-2.04285
-1.78616
-1.56282
-1.33804
-1.08367
-0.765586
-0.354451
0.124584
0.38382
30.027
29.5145
28.2023
25.966
22.5943
17.6369
10.2702
-1.03114
-19.2162
-40.089
-103.627
-231.159
-419.515
-442.105
-274.291
-147.961
-86.2141
-54.566
-36.6966
-25.0787
-16.659
-12.2263
-7.63698
-4.25329
-2.46635
-1.53211
-0.924961
-0.508723
-0.244034
-0.0829656
0.0189746
0.0892595
0.139138
0.183434
0.237031
0.3097
0.405232
0.511843
0.566698
0.403598
26.6411
25.8526
23.884
20.5572
15.5665
8.3236
-2.15213
-17.4563
-40.2704
-75.3036
-124.303
-186.082
-241.826
-248.377
-199.629
-139.149
-94.5131
-66.0435
-47.2467
-33.9914
-24.6535
-18.7089
-13.4589
-9.56539
-7.07326
-5.39483
-4.10047
-3.05584
-2.22547
-1.57036
-1.04734
-0.624184
-0.281232
-0.00391139
0.222688
0.403565
0.535215
0.59862
0.548893
0.324086
24.2407
23.2582
20.837
16.7768
10.7454
2.13956
-9.93724
-26.6935
-49.6369
-80.292
-118.596
-160.164
-192.895
-199.277
-174.206
-134.287
-98.3498
-72.0951
-53.3374
-39.4119
-28.9682
-21.2411
-15.1749
-10.5517
-7.19737
-4.78414
-3.0068
-1.68044
-0.698373
0.0193434
0.539848
0.914473
1.17879
1.35613
1.4631
1.50435
1.47255
1.34509
1.07774
0.60101
23.005
21.9197
19.2701
14.8491
8.32315
-0.890809
-13.5938
-30.7194
-53.15
-81.2125
-113.564
-145.683
-169.342
-175.062
-159.362
-130.154
-99.7421
-74.9389
-56.1978
-41.9425
-31.0126
-22.7346
-16.486
-11.7672
-8.2739
-5.73531
-3.87998
-2.49848
-1.45905
-0.676265
-0.0871058
0.355826
0.685254
0.921888
1.07742
1.15369
1.14237
1.02455
0.774906
0.387227
54.6031
55.5877
57.9182
61.6451
66.829
73.6013
82.072
92.1748
103.498
115.033
124.907
130.32
128.599
119.025
103.959
87.3469
71.7482
57.9869
46.2388
36.541
28.7943
22.7098
17.9312
14.192
11.3066
9.08509
7.36811
6.04674
5.0393
4.27677
3.69355
3.23814
2.87815
2.58671
2.34123
2.11466
1.87486
1.58386
1.19222
0.628287
53.6794
54.6486
56.9294
60.5932
65.7452
72.5887
81.3514
92.1492
104.807
118.528
131.392
139.277
137.515
125.011
106.311
87.3404
70.4728
56.01
43.9896
34.3905
27.01
21.2025
16.6089
13.0788
10.4078
8.34132
6.72317
5.46749
4.50339
3.77088
3.20937
2.76931
2.42249
2.14616
1.92041
1.72287
1.52858
1.30301
0.995672
0.5284
51.8668
52.7853
54.9378
58.4279
63.4363
70.2962
79.4637
91.4488
106.666
124.988
144.109
157.885
155.936
136.553
110.97
88.0276
68.7521
52.8863
40.2995
30.8806
24.6541
19.3571
14.4534
10.8931
8.45895
6.66114
5.29345
4.2645
3.49306
2.89745
2.43671
2.08939
1.8316
1.63902
1.49764
1.39719
1.32741
1.2605
1.12899
0.744331
49.2219
50.0363
51.9401
55.0676
59.679
66.2575
75.5637
88.7353
107.46
134.166
164.584
195.479
197.194
163.94
125.807
96.8389
72.2629
53.1864
38.9868
28.8976
19.739
17.1801
11.7981
7.82405
5.19022
3.30961
1.98014
1.05757
0.392452
-0.103232
-0.468559
-0.723625
-0.889657
-0.991722
-1.02923
-0.992013
-0.865611
-0.641357
-0.34417
-0.149747
45.8461
46.4956
47.9947
50.4894
54.2827
59.946
68.4621
81.52
102.094
138.826
196.993
263.509
277.585
187.687
129.99
94.2902
62.8065
41.4723
27.4619
18.9339
15.7989
7.85313
5.65188
3.99581
2.28673
0.843136
-0.194705
-0.95811
-1.56911
-2.06898
-2.47426
-2.7829
-3.00908
-3.16638
-3.23631
-3.17524
-2.92819
-2.4068
-1.5371
-0.578277
41.9219
42.3391
43.2628
44.8156
47.2628
51.1071
57.2694
67.5317
85.5712
130.65
209.95
375.988
509.124
172.685
153.888
95.196
50.0325
26.0741
12.7719
4.72594
-3.92631
-32.5284
-28.8963
-26.3673
-25.1179
-23.8785
-22.744
-21.844
-21.1178
-20.4878
-19.9146
-19.3955
-18.8888
-18.3528
-17.755
-17.0368
-16.0791
-14.6332
-12.1396
-7.19968
37.7118
37.8353
38.0454
38.3969
39.022
40.1461
42.1759
45.8839
52.8027
85.7709
153.711
373.653
1782.59
273.889
72.1167
17.6139
-0.198703
-8.10176
-13.9471
-18.3619
-0.561525
-3.86814
-9.10357
-11.7161
-12.7726
-13.3035
-13.632
-13.8027
-13.8362
-13.7696
-13.6476
-13.4429
-13.1642
-12.7948
-12.2777
-11.5028
-10.2417
-8.05896
-4.2831
33.5212
33.3286
32.7698
31.8141
30.4183
28.4528
25.6406
21.371
14.1593
16.4561
5.96279
-119.047
-837.963
-865.989
-231.537
-72.396
-39.5239
-28.7573
-23.1562
-17.9922
-12.7258
-21.961
-18.0973
-14.244
-11.9531
-10.3343
-9.07471
-8.12697
-7.42304
-6.88809
-6.47008
-6.12434
-5.8356
-5.56877
-5.28254
-4.9255
-4.42623
-3.67449
-2.55173
-1.13442
29.6904
29.1944
27.9158
25.7446
22.4981
17.7882
10.9107
0.583025
-15.6558
-34.3011
-89.844
-201.494
-366.7
-383.605
-236.351
-129.362
-78.0828
-51.4797
-36.0524
-26.1162
-20.4228
-19.4828
-12.9119
-7.70494
-5.1405
-3.83702
-2.97979
-2.37912
-1.97797
-1.71192
-1.52612
-1.38875
-1.28157
-1.17726
-1.05569
-0.893947
-0.665032
-0.344404
0.0488119
0.313084
26.5293
25.7824
23.9171
20.7752
16.0982
9.38299
-0.201231
-13.989
-34.2098
-64.7851
-107.113
-160.075
-207.463
-213.242
-172.61
-122.181
-84.8493
-60.6918
-44.4156
-32.8585
-24.9578
-20.4309
-15.1767
-10.9419
-8.21697
-6.37947
-4.95956
-3.8191
-2.91968
-2.21591
-1.66007
-1.215
-0.859339
-0.56724
-0.320749
-0.105438
0.0874267
0.254818
0.362649
0.31061
24.2923
23.3685
21.0968
17.3021
11.7029
3.78387
-7.21497
-22.3033
-42.7212
-69.6953
-103.07
-138.983
-167.236
-172.982
-152.08
-118.652
-88.3034
-65.7869
-49.4086
-37.109
-27.8867
-21.1262
-15.6679
-11.2713
-7.96615
-5.54718
-3.74581
-2.38727
-1.36937
-0.614859
-0.0579073
0.352312
0.651703
0.867051
1.01666
1.11008
1.14676
1.11149
0.963871
0.607727
23.1436
22.125
19.6477
15.5312
9.49198
1.03217
-10.5265
-25.9626
-45.9874
-70.8136
-99.21
-127.244
-147.9
-153.16
-140.14
-115.591
-89.7505
-68.3743
-51.9621
-39.3165
-29.551
-22.1311
-16.4712
-12.0633
-8.70021
-6.20619
-4.35552
-2.95806
-1.89213
-1.07861
-0.458263
0.0146411
0.372954
0.63929
0.827405
0.943041
0.982228
0.930287
0.761912
0.441945
52.5699
53.4096
55.3771
58.5049
62.8276
68.4291
75.3638
83.5264
92.518
101.457
108.803
112.406
110.249
101.899
89.3237
75.5702
62.5833
50.9837
40.9248
32.4746
25.5941
20.1148
15.8149
12.4693
9.87506
7.8508
6.26586
5.03278
4.08309
3.36758
2.82219
2.39243
2.05372
1.77616
1.55379
1.36115
1.16775
0.94571
0.667231
0.316468
51.6958
52.5198
54.438
57.4973
61.7689
67.3913
74.506
83.1397
93.0562
103.499
112.812
118.087
115.772
105.228
90.0704
74.7453
60.956
48.9096
38.6858
30.3058
23.6063
18.358
14.2751
11.1499
8.74721
6.85641
5.35804
4.17473
3.2402
2.56119
2.06224
1.65825
1.33324
1.07414
0.87184
0.709419
0.566305
0.424214
0.264216
0.0875589
49.977
50.7585
52.553
55.4365
59.5402
65.1003
72.4256
81.8262
93.4781
107.071
120.722
129.71
126.834
111.06
91.002
73.1707
57.9953
45.1412
34.6113
26.3425
19.9016
15.2374
11.4012
8.51915
6.35154
4.67801
3.40859
2.44437
1.74682
1.17811
0.720861
0.396989
0.173483
0.0320865
-0.0597017
-0.0988785
-0.0856108
-0.0237276
0.0631997
0.117369
47.4819
48.1707
49.7326
52.2709
55.9767
61.198
68.4618
78.5149
92.3977
111.418
136.444
158.245
157.891
131.282
101.497
78.8393
59.4335
44.0706
32.3052
23.5851
12.2797
9.56237
6.33518
3.75537
1.60497
-0.0888501
-1.33979
-2.20657
-2.84652
-3.33154
-3.68344
-3.91144
-4.04113
-4.09815
-4.07982
-3.96215
-3.72002
-3.3005
-2.62083
-1.50573
44.3183
44.8534
46.0482
48.0085
50.9581
55.3101
61.7439
71.3961
86.2173
115.496
157.016
203.904
209.41
138.729
97.3306
70.7773
46.6363
29.9467
18.7355
11.896
10.1189
-1.84919
-3.08684
-4.40095
-5.86993
-7.17713
-8.04289
-8.57059
-8.93559
-9.20166
-9.38703
-9.50468
-9.53086
-9.46212
-9.3297
-9.05199
-8.54981
-7.6695
-6.14803
-3.55863
40.6568
40.9787
41.6612
42.7855
44.5462
47.2944
51.6558
58.8108
71.136
105.99
166.725
292.059
388.043
103.797
111.897
57.1477
21.0611
2.65187
-7.29754
-12.4843
-11.5425
-26.0593
-27.3343
-31.0635
-32.1817
-31.8003
-31.142
-30.5061
-29.85
-29.1616
-28.4538
-27.7182
-26.9909
-26.2548
-25.4217
-24.4292
-23.1312
-21.1778
-17.7479
-10.8166
36.7386
36.7995
36.8551
36.9314
37.1176
37.5527
38.4742
40.3228
43.9693
68.7686
120.726
301.674
1589.15
259.06
-14.679
-58.182
-67.3488
-68.764
-67.138
-61.8979
-35.0709
-34.4066
-36.6287
-36.8956
-36.0573
-35.0657
-34.1266
-33.1975
-32.2632
-31.3322
-30.431
-29.5255
-28.5698
-27.5722
-26.4395
-25.017
-22.9331
-19.3198
-11.9017
32.8492
32.6355
32.0175
30.961
29.4211
27.2672
24.2321
19.7737
12.702
13.3332
3.65695
-94.1409
-665.684
-658.037
-186.223
-74.8205
-51.2282
-41.8825
-36.072
-30.6358
-28.0135
-30.847
-26.963
-23.1313
-20.7333
-18.9294
-17.4918
-16.3671
-15.4701
-14.7319
-14.106
-13.5622
-13.0869
-12.602
-12.0948
-11.5103
-10.7462
-9.61771
-7.78627
-4.58866
29.3028
28.8235
27.5753
25.4694
22.3534
17.9013
11.5389
2.27598
-11.6214
-27.6135
-72.2053
-157.912
-281.647
-294.573
-186.455
-107.605
-68.9135
-47.7511
-34.8382
-26.4362
-23.8779
-19.2359
-15.2207
-11.9556
-9.96366
-8.63398
-7.61816
-6.82988
-6.22558
-5.75586
-5.37882
-5.06479
-4.79824
-4.54496
-4.28111
-3.9778
-3.59147
-3.06116
-2.30523
-1.22571
26.381
25.6773
23.9224
20.9787
16.641
10.5003
1.89672
-10.1924
-27.4114
-52.6352
-86.5892
-127.663
-163.321
-168.584
-139.311
-101.622
-72.8163
-53.4014
-39.7482
-29.7317
-22.6564
-18.7213
-15.0079
-11.8768
-9.54603
-7.79063
-6.39674
-5.27351
-4.37538
-3.65764
-3.07965
-2.60841
-2.22285
-1.89566
-1.60724
-1.34015
-1.08061
-0.817148
-0.546774
-0.265508
24.3184
23.4585
21.3478
17.8411
12.7138
5.55013
-4.25293
-17.4692
-34.9963
-57.6415
-85.056
-113.946
-136.475
-141.306
-125.678
-100.355
-76.5135
-58.1549
-44.3471
-33.7143
-25.5784
-19.5927
-14.9616
-11.2725
-8.43364
-6.29314
-4.66748
-3.42298
-2.47122
-1.74599
-1.19299
-0.77023
-0.44656
-0.197746
-0.00686038
0.136121
0.232259
0.273535
0.242703
0.127566
23.2618
22.3153
20.0251
16.2396
10.7326
3.10383
-7.1846
-20.7272
-38.0206
-59.1108
-82.8603
-106.006
-122.969
-127.563
-117.733
-98.6282
-78.0333
-60.4869
-46.6187
-35.6843
-27.091
-20.4937
-15.484
-11.6268
-8.67115
-6.43272
-4.73582
-3.43686
-2.43656
-1.66578
-1.07209
-0.614298
-0.262103
0.00550367
0.202262
0.334815
0.400366
0.388036
0.287514
0.121143
50.5266
51.2177
52.8192
55.3433
58.7987
63.2225
68.6136
74.8299
81.4874
87.835
92.6685
94.4487
91.8659
84.7865
74.7182
63.8123
53.4335
44.0187
35.6925
28.5485
22.6095
17.8077
14.0312
11.1401
8.91238
7.157
5.76854
4.6844
3.84937
3.21275
2.72367
2.34083
2.03864
1.7959
1.59647
1.41937
1.23925
1.02924
0.757653
0.389518
49.6982
50.3761
51.9288
54.3795
57.7645
62.1591
67.6189
74.0842
81.2628
88.4513
94.309
96.76
93.7658
85.1973
73.6587
62.0247
51.4002
41.8915
33.5883
26.5763
20.805
16.1614
12.5732
9.94294
7.95565
6.38804
5.14578
4.16927
3.40437
2.81176
2.34851
1.97794
1.68095
1.44223
1.24897
1.08795
0.941227
0.786179
0.590757
0.311882
48.081
48.7157
50.1499
52.4226
55.6163
59.871
65.349
72.1636
80.258
89.1527
97.3597
101.543
97.3254
84.8291
70.235
57.548
46.5979
36.8675
28.5006
21.587
15.9524
11.5908
8.86547
6.95007
5.3258
3.99779
3.00374
2.28088
1.75302
1.35374
1.05398
0.839637
0.691922
0.59411
0.53408
0.511368
0.523709
0.557956
0.573908
0.447331
45.7385
46.2859
47.5054
49.4519
52.2477
56.1072
61.3238
68.2553
77.295
88.7416
100.742
108.887
102.106
81.7637
63.3776
50.4048
39.4939
30.0567
22.206
15.5978
8.93968
2.70778
2.77155
3.15429
2.48885
1.53808
0.735974
0.111096
-0.396397
-0.81148
-1.13654
-1.37405
-1.53335
-1.62661
-1.65138
-1.59031
-1.42392
-1.12524
-0.683696
-0.170842
42.7817
43.1927
44.0794
45.5074
47.6074
50.6402
54.9755
61.1649
69.9829
90.1806
111.684
132.368
125.477
82.9432
58.3863
45.0649
30.6296
19.5977
11.8146
6.23703
0.722904
-13.4858
-10.7802
-7.74767
-6.43101
-5.80705
-5.37507
-5.06224
-4.86886
-4.76438
-4.71171
-4.68082
-4.65056
-4.6049
-4.50889
-4.31114
-3.94381
-3.29971
-2.26356
-0.864642
39.3761
39.6004
40.0368
40.7316
41.8018
43.4455
45.9806
49.9372
56.2002
78.1427
105.783
149.929
167.27
28.7087
20.5559
4.28045
-4.68049
-9.11625
-12.5603
-15.1379
-21.4466
-14.243
-15.2812
-16.9173
-17.3292
-17.1661
-16.8846
-16.5962
-16.2989
-15.9919
-15.6772
-15.3374
-14.992
-14.6298
-14.185
-13.5944
-12.7447
-11.3987
-9.10635
-5.1046
35.7464
35.7451
35.6405
35.4396
35.1851
34.925
34.7135
34.6154
34.6868
48.7188
60.2884
131.145
175.537
-678.807
-126.024
-89.8998
-66.8921
-62.0222
-58.1503
-54.9568
-66.8085
-40.4326
-38.1185
-35.9331
-33.9757
-32.071
-30.3911
-28.9521
-27.6839
-26.543
-25.5066
-24.5591
-23.6783
-22.8043
-21.9035
-20.9099
-19.7044
-17.9996
-15.1627
-9.56242
32.1596
31.9176
31.2389
30.0816
28.3983
26.0522
22.7719
18.0468
10.8853
9.03254
-13.3033
-82.0551
-306.148
-257.452
-105.064
-56.9639
-36.8751
-28.1287
-23.0459
-18.6041
-10.6278
4.91577
1.70773
-2.08676
-3.68923
-4.39581
-4.82494
-5.10882
-5.28054
-5.37289
-5.41413
-5.42751
-5.4058
-5.32219
-5.16093
-4.89753
-4.46488
-3.74003
-2.56985
-1.01887
28.8915
28.4239
27.2093
25.17
22.1857
17.9893
12.117
3.77734
-8.50354
-27.7046
-52.1822
-107.007
-177.074
-187.671
-128.742
-81.3116
-55.0415
-39.1425
-28.8424
-21.249
-11.1712
-2.15292
-3.00399
-4.32364
-4.24747
-3.71142
-3.20352
-2.78484
-2.43935
-2.15849
-1.93416
-1.75317
-1.60506
-1.47404
-1.32839
-1.14627
-0.903738
-0.57092
-0.164748
0.107569
26.207
25.5475
23.8982
21.155
17.1609
11.5994
3.97766
-6.43157
-20.6647
-40.0542
-65.2381
-93.747
-117.44
-122.012
-104.61
-79.9657
-59.5058
-44.7182
-33.7159
-24.9705
-17.5769
-12.4537
-9.51434
-7.38462
-5.49835
-3.94355
-2.76081
-1.87573
-1.20849
-0.704604
-0.324896
-0.0381634
0.176917
0.34273
0.482048
0.606475
0.719928
0.811561
0.826209
0.587568
24.3151
23.5188
21.57
18.3546
13.7052
7.30534
-1.28966
-12.6146
-27.2062
-45.3594
-66.4734
-88.1029
-104.526
-108.72
-98.8498
-81.3991
-64.0276
-49.8265
-38.6217
-29.6042
-22.2863
-16.5629
-12.1447
-8.85949
-6.37735
-4.47557
-3.02436
-1.92013
-1.07923
-0.439136
0.0462566
0.412411
0.686074
0.887984
1.0327
1.12742
1.16788
1.13335
0.974539
0.586664
23.3477
22.4752
20.3733
16.923
11.9557
5.16774
-3.83667
-15.4613
-29.9775
-47.239
-66.1872
-84.2916
-97.4361
-101.379
-94.8022
-81.114
-65.6937
-51.9429
-40.6283
-31.4051
-23.9119
-17.9522
-13.3357
-9.8303
-7.14964
-5.07063
-3.45678
-2.21076
-1.25281
-0.518636
0.0414096
0.465355
0.782167
1.01244
1.16895
1.25728
1.27103
1.19054
0.977167
0.566203
48.6184
49.1672
50.4257
52.3911
55.0454
58.3868
62.3699
66.8316
71.4198
75.5248
78.2643
78.6247
75.8631
70.0544
62.2543
53.858
45.7607
38.2808
31.539
25.6499
20.684
16.6361
13.4377
10.9561
9.00101
7.42597
6.15668
5.14678
4.35163
3.72739
3.2351
2.84279
2.52538
2.26158
2.03201
1.81661
1.59003
1.32167
0.973987
0.501792
47.8345
48.3706
49.5802
51.4711
54.0385
57.3101
61.2723
65.8062
70.6008
75.0478
78.1549
78.6376
75.4656
68.8204
60.3277
51.7056
43.6562
36.2711
29.6579
23.9572
19.2176
15.4174
12.5005
10.2804
8.51992
7.08605
5.92463
4.99192
4.24233
3.6376
3.14749
2.74766
2.41832
2.14217
1.90343
1.68682
1.47087
1.22612
0.910804
0.471542
46.309
46.8038
47.8976
49.6107
51.9723
55.0451
58.8768
63.4388
68.5234
73.57
77.3954
78.0942
73.8018
65.0928
55.2923
46.6233
38.947
31.8253
25.4505
20.0558
15.6818
12.3797
10.1737
8.4402
6.87669
5.54229
4.49367
3.69298
3.07799
2.60113
2.23188
1.94775
1.73083
1.5657
1.43953
1.34244
1.25971
1.16351
0.996077
0.632311
44.1079
44.5234
45.4187
46.8212
48.7949
51.4388
54.8704
59.178
64.334
69.9694
74.7926