/*--------------------------------*- C++ -*----------------------------------*\
| =========                 |                                                 |
| \\      /  F ield         | OpenFOAM: The Open Source CFD Toolbox           |
|  \\    /   O peration     | Version:  2306                                  |
|   \\  /    A nd           | Website:  www.openfoam.com                      |
|    \\/     M anipulation  |                                                 |
\*---------------------------------------------------------------------------*/
FoamFile
{
    version     2.0;
    format      ascii;
    arch        "LSB;label=32;scalar=64";
    class       surfaceScalarField;
    location    "1.05";
    object      phi;
}
// * * * * * * * * * * * * * * * * * * * * * * * * * * * * * * * * * * * * * //

dimensions      [0 3 -1 0 0 0 0];

oriented        oriented;

internalField   nonuniform List<scalar> 
338621
(
24.995
0.0021857
0.00150029
24.9873
0.00466979
0.00307107
24.9751
0.00747288
0.00484622
24.9578
0.0104756
0.00696779
24.9345
0.0138001
0.00974374
24.9016
0.0198617
0.0133343
24.8546
0.0294456
0.0178379
24.7913
0.0401592
0.0235452
24.729
0.0320787
0.0306614
24.6854
0.0049956
0.0390628
24.6567
-0.0193376
0.048575
24.5825
0.016042
0.0587006
24.611
-0.0970494
0.0690742
24.7416
-0.208795
0.0786889
24.7838
-0.128653
0.0868595
24.8169
-0.125864
0.0932018
24.8467
-0.127252
0.0978526
24.871
-0.125498
0.101448
24.8915
-0.124583
0.104217
24.919
-0.133928
0.106531
24.9495
-0.138765
0.108345
24.9727
-0.133123
0.110014
24.9903
-0.129185
0.111598
25.0045
-0.127154
0.112934
25.0163
-0.125962
0.114149
25.026
-0.124939
0.115242
25.0343
-0.124374
0.116126
25.0412
-0.123684
0.116784
25.0469
-0.123011
0.117306
25.0518
-0.122606
0.117667
25.0562
-0.12222
0.117857
25.0602
-0.121873
0.117859
25.0639
-0.121503
0.117794
25.0674
-0.121119
0.117654
25.0707
-0.120751
0.117407
25.0743
-0.120716
0.117096
25.0782
-0.120526
0.116689
25.0823
-0.120387
0.116274
25.0868
-0.12036
0.115828
-0.120733
0.115138
24.995
0.0043619
0.0014674
24.9872
0.00949353
0.00296772
24.9746
0.0154966
0.00471037
24.9572
0.021233
0.00679911
24.9338
0.0278505
0.00953538
24.9041
0.0368287
0.0130001
24.8681
0.0481649
0.0175317
24.822
0.0632864
0.023304
24.7571
0.0668455
0.0305743
24.682
0.0411264
0.0393658
24.6387
-0.0252352
0.0496331
24.625
-0.0305547
0.0605936
24.6635
-0.207779
0.0725606
24.7478
-0.376204
0.0834894
24.8287
-0.301647
0.0924462
24.8979
-0.293871
0.0991726
24.951
-0.284202
0.104026
24.9941
-0.276146
0.107703
25.0401
-0.281006
0.110606
25.0748
-0.281566
0.112907
25.0958
-0.274524
0.114856
25.1106
-0.26447
0.11655
25.1206
-0.257366
0.118192
25.1283
-0.254392
0.119559
25.1338
-0.252226
0.120693
25.138
-0.250646
0.121575
25.1404
-0.249063
0.12227
25.1422
-0.248213
0.122736
25.1436
-0.247486
0.12303
25.1444
-0.246549
0.123169
25.1449
-0.245885
0.123169
25.145
-0.245
0.123053
25.1453
-0.244654
0.122865
25.1456
-0.244085
0.122613
25.1461
-0.243584
0.122298
25.1469
-0.243447
0.121974
25.148
-0.243209
0.121557
25.1496
-0.243148
0.121159
25.1521
-0.243518
0.120697
-0.243498
0.120045
24.9953
0.00622467
0.00138865
24.9876
0.01444
0.00280466
24.9756
0.0231523
0.00441949
24.9576
0.0329373
0.00647145
24.9331
0.0434071
0.00909483
24.9017
0.0559639
0.0124839
24.8614
0.0716155
0.0170218
24.8119
0.0902349
0.0228795
24.7425
0.106009
0.0305134
24.6441
0.0996143
0.0402063
24.5669
0.00531879
0.0520234
-0.00609617
0.00578415
-0.00477787
24.6631
-0.0387105
0.0657687
-0.0584738
-0.0374968
-0.0576118
24.5553
-0.0111341
0.0789574
-0.095504
0.0216874
-0.0939268
24.7284
-0.182296
0.0917462
-0.124143
-0.212088
-0.122415
24.8227
-0.129096
0.101336
-0.12173
-0.126908
-0.119348
24.8845
-0.118093
0.108094
-0.11606
-0.115556
-0.11384
24.9392
-0.11401
0.112827
-0.114125
-0.112036
-0.111432
25.0056
-0.116375
0.11646
-0.115286
-0.114205
-0.113063
25.0491
-0.112784
0.119449
-0.111405
-0.110611
-0.109275
25.0754
-0.109064
0.12186
-0.108056
-0.106851
-0.105797
25.0944
-0.417492
0.124014
25.109
-0.405085
0.125958
25.1181
-0.394293
0.127816
25.1249
-0.390591
0.129391
25.1302
-0.38808
0.130608
25.1337
-0.385577
0.131366
25.1358
-0.382764
0.131664
25.1371
-0.381113
0.131556
25.1372
-0.37873
0.131118
25.1373
-0.377098
0.13044
25.1368
-0.374984
0.129602
25.1363
-0.373195
0.128682
25.1355
-0.371547
0.127695
25.1349
-0.370311
0.12683
25.1342
-0.368795
0.125946
25.1336
-0.368059
0.125177
25.1337
-0.367654
0.12442
25.1342
-0.367404
0.123758
25.135
-0.36744
0.123114
-0.36765
0.1224
24.9956
0.0083913
0.00126854
24.9888
0.018699
0.00256198
24.977
0.031007
0.0040173
24.9601
0.0440136
0.00594334
24.9354
0.0598443
0.00837479
24.9008
0.0791318
0.011607
24.855
0.101654
0.0159812
24.7965
0.127165
0.0217978
24.7295
0.143503
0.0296479
6.14097
0.0367746
0.0401576
0.0541256
0.038239
0.0545244
6.16311
6.14019
6.16124
6.12332
0.0171311
0.00585189
-6.11012
6.09785
-0.0341059
0.0076643
-6.10167
6.12311
-0.0421596
0.00957595
-6.11535
6.14234
-0.220909
0.0116162
-6.16118
6.17567
-0.156746
0.013165
-6.18913
6.20003
-0.143089
0.014104
-6.21148
6.22589
-0.143191
0.0147658
-6.23793
6.24521
-0.138945
0.015286
-6.25111
6.25642
-0.133831
0.0157232
-6.26098
6.26516
-0.129393
0.0161491
25.1051
-0.143604
0.136062
-0.144767
-0.14133
-0.143138
-6.26893
-6.27356
-6.26953
-6.27391
25.1126
-0.551898
0.139337
25.1162
-0.539353
0.141407
25.1194
-0.536452
0.142626
25.1203
-0.532264
0.143348
25.1191
-0.527892
0.143451
25.1175
-0.52399
0.142903
25.1145
-0.519931
0.141789
25.1107
-0.515148
0.140237
25.1062
-0.511011
0.138394
25.1015
-0.506659
0.136392
25.0964
-0.502448
0.134361
25.0909
-0.498431
0.132361
25.0854
-0.495486
0.130621
25.0801
-0.49244
0.128989
25.0746
-0.490155
0.127606
25.0692
-0.488642
0.126357
25.064
-0.487461
0.125243
25.06
-0.487645
0.124239
-0.487178
0.123224
24.9973
0.0089076
0.0011071
24.9913
0.0224755
0.00223485
24.9815
0.0373713
0.00349861
24.966
0.054405
0.00519316
24.943
0.0755726
0.00733749
24.9094
0.102616
0.010206
24.8592
0.137868
0.014091
24.7847
0.182422
0.0194394
6.17093
0.232627
0.0267131
6.16362
6.17076
6.16364
6.15477
0.0489658
0.00397671
6.12914
0.00553376
-6.15724
0.0202517
0.0118603
0.011714
0.0203238
-0.0415855
-6.07612
6.04162
0.00748758
-0.00197568
0.00423452
0.00391903
-0.00185737
0.0226685
-6.0409
6.059
0.00984016
0.029167
-0.0401243
-0.0402986
-0.0191038
0.0423733
-6.11132
6.13676
0.0126976
-0.0522332
-0.0669029
-0.104793
-0.0526944
0.238441
-6.16964
6.18216
0.01436
-0.0510863
-0.0549825
-0.0542817
-0.0514989
0.184953
-6.19432
6.20807
0.0151765
-0.0511633
-0.050561
-0.0503858
-0.0513457
0.174526
-6.22182
6.23363
0.0156928
-0.0489599
-0.0492038
-0.0489118
-0.0493262
0.168889
-6.24315
6.25024
0.0161308
-0.0460936
-0.0464012
-0.0459255
-0.0466157
0.161796
-6.2565
6.26104
0.0166325
-0.0436892
-0.0442762
-0.0437292
-0.0442493
0.154752
-6.2652
6.2675
0.0172717
-0.0418282
-0.0425653
-0.0420513
-0.0423256
0.149192
-6.27076
6.27277
-0.164102
0.0184873
25.048
-0.668433
0.149669
-6.27285
-6.26565
-6.27398
-6.26867
25.0218
-0.6658
0.152594
24.9944
-0.661986
0.152964
24.9672
-0.656829
0.151727
24.9417
-0.65139
0.148976
24.9177
-0.644834
0.144875
24.895
-0.63693
0.139737
24.8741
-0.628186
0.133948
24.854
-0.61886
0.12789
24.8351
-0.609662
0.121919
24.8172
-0.600926
0.116322
24.8004
-0.592811
0.11127
24.7837
-0.585791
0.106994
24.7678
-0.579983
0.103405
24.7524
-0.575258
0.100506
24.7375
-0.571882
0.0981633
24.7236
-0.569787
0.096223
24.7108
-0.569393
0.0945477
-0.571363
0.0929163
24.9999
0.00747532
0.00090565
24.9965
0.0240475
0.00183557
24.9889
0.0421235
0.00287769
24.9771
0.0620678
0.00420467
24.9594
0.0873777
0.00594889
24.9322
0.121646
0.00823074
24.8889
0.169958
0.0112631
24.8163
0.239637
0.0154602
6.1705
0.346883
0.0210439
6.1701
6.17047
6.16994
-0.0649983
6.1448
0.0875696
0.00312143
-0.0196527
-1.52751
1.52234
0.0242391
0.000580151
-0.0195833
-1.50406
1.4919
0.0310236
0.000715485
-1.4682
0.0520393
1.47802
-0.0629905
0.00112597
-1.52928
0.0847503
1.53792
-0.0947599
0.00136476
-1.53639
0.06204
-0.065986
0.00174931
1.53859
-1.54815
0.0600841
-0.0647953
0.00212713
1.55074
0.0574075
-1.55642
1.5578
-0.0613801
0.00258985
0.0532436
-1.56037
1.56075
-0.0566765
0.00305175
0.0504948
-1.56085
1.56076
-0.0537353
0.00333344
0.0482147
-1.55969
1.5592
-0.0510958
0.00336622
-1.55227
0.181936
6.14981
-0.181272
0.0234564
-1.53414
-1.55282
-1.53471
23.8379
-0.766523
0.0853632
-6.09372
-5.80148
-6.11163
-5.81833
23.8466
-0.75734
0.0828473
23.8554
-0.750963
0.0801589
23.8649
-0.743406
0.0770635
23.8744
-0.734611
0.0737072
23.8837
-0.724345
0.0702385
23.8929
-0.712873
0.0667292
23.9021
-0.700632
0.063237
23.9116
-0.688184
0.0598334
23.9213
-0.676008
0.0566
23.9313
-0.664494
0.0536058
23.9417
-0.654083
0.0508733
23.9523
-0.644861
0.0484797
23.9629
-0.63692
0.046346
23.9737
-0.630477
0.0444233
23.9844
-0.625286
0.0426149
23.9952
-0.621336
0.0407816
24.0056
-0.618518
0.0387641
-0.616344
0.0364927
25.003
0.00360142
0.000676344
25.0035
0.0221633
0.00137476
25.0006
0.0428872
0.00215519
24.9949
0.0647372
0.0030747
24.9861
0.0919592
0.00425604
24.9725
0.129456
0.00578485
24.9528
0.182
0.00766983
24.9217
0.260661
0.0100589
6.21318
0.387208
0.0128244
6.22131
6.21292
6.22116
-0.105943
6.1978
0.11951
0.00181224
-0.0393867
-1.54205
1.53591
0.0452263
0.000300578
-0.0824891
-1.50655
1.48805
0.100708
0.000274678
0.00435396
-0.0746531
0.0748312
-0.00456126
2.91042e-05
-0.0213886
0.000449508
0.0209004
2.69325e-06
3.59684e-05
-0.197658
0.00860973
-0.0191537
-0.004026
0.212228
-1.18313
0.0583269
-0.0766338
-0.00544523
1.20688
0.0570996
-1.26096
1.27387
-0.0635942
-0.00642326
0.0595172
-1.31162
1.32344
-0.065201
-0.00614137
0.0587249
-1.35276
1.36122
-0.0619425
-0.00524977
0.057012
-1.38134
1.38786
-0.0596219
-0.00391838
-1.4197
0.215679
5.86921
-0.225474
-0.0191909
-1.50389
-1.41449
-1.50215
24.1517
-0.684479
-0.136324
-5.91092
-6.17903
-5.83225
-6.17518
24.19
-0.662593
-0.133077
24.2185
-0.652508
-0.126938
24.2393
-0.644308
-0.119925
24.2531
-0.636016
-0.11235
24.2612
-0.627994
-0.10453
24.2657
-0.620344
-0.0969693
24.268
-0.612945
-0.0899667
24.2695
-0.605913
-0.0838138
24.2714
-0.599291
-0.0786435
24.2746
-0.593138
-0.0745166
24.2794
-0.587609
-0.0713246
24.2863
-0.582665
-0.0690637
24.2952
-0.578306
-0.0675255
24.3059
-0.574465
-0.0666669
24.3183
-0.571306
-0.0664104
24.3322
-0.568483
-0.0666974
24.3469
-0.565687
-0.0675268
-0.56202
-0.0687877
25.0047
-0.00127776
0.000463025
25.0099
0.0160291
0.000906061
25.0148
0.0366182
0.00137925
25.0187
0.0588914
0.00191239
25.0206
0.0875748
0.00248312
25.0257
0.121196
0.00314851
25.0379
0.166009
0.00375851
25.064
0.230299
0.00412022
6.27443
0.331304
0.00386276
6.28221
6.27482
6.28459
-0.111489
6.28229
0.103248
0.000384512
-0.0445815
-1.57804
1.57977
0.0428406
7.55656e-06
-0.084082
-1.59853
1.61363
-0.000204991
0.0691888
-0.0256992
-1.71371
1.75241
-0.00106795
0.0555607
-0.0208606
-0.0257685
-0.0208555
0.100948
-1.71246
1.68272
-0.0010943
-0.0701036
0.102096
-1.60864
-0.00145346
1.59819
-0.0901889
0.0777183
-1.58409
-0.00177328
1.5813
-0.0731485
0.0567644
-1.577
1.57616
-0.0538399
-0.00209011
0.0577527
-1.57465
1.57291
-0.0537312
-0.00227565
0.0523202
-1.57261
1.57198
-0.0493323
-0.00235751
0.048815
-1.57107
1.57058
-0.0459479
-0.00237655
-1.5683
0.182609
6.26737
-0.15981
-0.0182852
-1.56777
-1.56798
-1.56783
25.0766
-0.543675
-0.133637
-6.27082
-6.27032
-6.27204
-6.27061
25.0757
-0.527427
-0.134252
25.0711
-0.514266
-0.133598
25.0658
-0.506539
-0.13244
25.0611
-0.500496
-0.130878
25.0574
-0.495403
-0.128866
25.0545
-0.490857
-0.126589
25.0521
-0.486448
-0.124116
25.0507
-0.482842
-0.121621
25.0498
-0.479182
-0.119219
25.0493
-0.475544
-0.117064
25.0493
-0.472573
-0.115075
25.0497
-0.469574
-0.113474
25.05
-0.466476
-0.112158
25.0509
-0.464107
-0.111247
25.052
-0.461678
-0.110746
25.0535
-0.459266
-0.110658
25.0554
-0.456571
-0.111004
-0.453753
-0.111609
25.0057
-0.00621562
0.000214086
25.014
0.00721888
0.000443025
25.0269
0.0230411
0.000640655
25.0382
0.0468219
0.000785288
25.0534
0.0713926
0.000828793
25.0769
0.0969676
0.000668689
25.1149
0.127784
0.000140011
25.1783
0.167964
-0.00121029
6.32052
0.230186
-0.00387525
6.31864
6.32489
6.31909
-0.0884355
6.33669
0.0730623
-0.000801041
-0.033136
6.41338
0.0876192
-0.00175359
-0.0343283
-0.033346
-0.0340261
-6.36442
-0.0332027
6.51737
0.0753119
-0.00364221
-0.0258917
-0.0331975
-0.025936
-6.4708
-0.00681498
-6.54782
6.51356
-0.00668985
-0.0065654
0.0156205
-0.00714305
0.0458797
0.0458405
-6.53485
6.51268
-0.124036
-0.00964863
0.0396255
0.0364994
0.0339156
0.0550573
-6.44796
6.41037
-0.177
-0.0118407
0.0556255
0.0573573
0.0584009
0.056005
-6.37072
6.33904
-0.17402
-0.0133258
0.0546786
0.0550113
0.0533236
0.0460598
-6.32152
6.3109
-0.15522
-0.0143977
0.0451081
0.0448752
0.0441938
0.0440215
-6.30277
6.29733
-0.154057
-0.015093
0.0437942
0.0435028
0.0432791
0.0410786
-6.2932
6.28805
-0.141348
-0.0154905
0.0405913
0.0404745
0.039858
0.0382412
-6.28392
6.27855
-0.129568
-0.0157264
0.0377877
0.0376159
0.0370254
0.141815
-6.27702
6.27507
-0.123825
-0.016033
25.0771
-0.402631
-0.129488
-6.27242
-6.27223
-6.27252
-6.27143
25.0673
-0.388053
-0.129627
25.0615
-0.379194
-0.12918
25.0568
-0.373434
-0.128469
25.0534
-0.369523
-0.127519
25.0507
-0.366396
-0.126358
25.0489
-0.363957
-0.125076
25.048
-0.361772
-0.123761
25.0474
-0.359748
-0.122477
25.0472
-0.357779
-0.121271
25.0475
-0.355592
-0.120206
25.0481
-0.353905
-0.119238
25.0485
-0.351694
-0.118373
25.0498
-0.350072
-0.117699
25.0511
-0.348145
-0.11721
25.0524
-0.346058
-0.116909
25.0544
-0.344456
-0.116852
25.0576
-0.342672
-0.11709
-0.341125
-0.117645
25.0063
-0.0111069
5.44151e-05
25.016
-0.00262554
8.34364e-05
25.0248
0.0142003
2.44707e-05
25.0412
0.0304322
-0.000131775
25.0677
0.0452632
-0.00054046
25.1012
0.0647098
-0.00133364
25.1487
0.0827658
-0.00274052
25.2153
0.106396
-0.00522399
25.3243
0.13033
-0.00944226
25.4296
0.144264
-0.0162799
-0.0608322
-0.0565535
-0.0587059
-0.057502
25.5781
0.131937
-0.0266318
-0.0603702
-0.0637993
-0.062131
-0.0677735
25.7124
0.0539679
-0.0413002
-0.0415802
-0.0275722
-0.0459573
-0.0319114
25.59
-0.157334
-0.0589354
0.0218927
0.124852
0.0198638
0.171997
25.4977
-0.238251
-0.0775082
0.0837585
0.117185
0.0990862
0.107976
25.4298
-0.247618
-0.0928313
0.0827127
0.147842
0.0313181
0.146234
25.3456
-0.350113
-0.103974
0.134313
0.137019
0.132638
0.134098
25.2634
-0.318522
-0.110932
0.127554
0.131028
0.125063
0.127904
25.1989
-0.327574
-0.115188
0.130271
0.127169
0.126749
0.123045
25.1568
-0.305929
-0.117759
0.120085
0.11694
0.116369
0.112379
25.1335
-0.286775
-0.119364
0.109513
0.109361
0.104486
0.106103
25.1143
-0.27259
-0.120456
0.105045
0.104481
0.102014
0.100786
25.0963
-0.263397
-0.121239
25.0849
-0.254999
-0.121661
25.077
-0.249327
-0.121983
25.071
-0.245046
-0.122317
25.0661
-0.242084
-0.122511
25.0626
-0.240289
-0.122629
25.0594
-0.238126
-0.122662
25.0572
-0.236929
-0.122611
25.0553
-0.235353
-0.122492
25.0541
-0.234325
-0.122306
25.0537
-0.233071
-0.122077
25.0531
-0.231535
-0.121827
25.0534
-0.230469
-0.121495
25.0535
-0.228895
-0.121251
25.0539
-0.227572
-0.121033
25.0553
-0.226462
-0.12091
25.0571
-0.22533
-0.120935
25.0589
-0.223385
-0.12116
-0.221831
-0.121608
25.0065
-0.015696
-8.92014e-05
25.0095
-0.00545919
-0.000187454
25.017
0.00699348
-0.000409728
25.0364
0.0116885
-0.000763486
25.0618
0.0212129
-0.00146232
25.0911
0.0378412
-0.00267493
25.1391
0.0391154
-0.00461936
25.2005
0.0523271
-0.00768498
25.28
0.0629474
-0.0124988
25.3763
0.0671988
-0.019612
25.4836
0.0537852
-0.0295851
25.564
0.0161672
-0.0428803
25.5416
-0.0769331
-0.0583177
25.5275
-0.150525
-0.0739454
25.4055
-0.0385703
-0.087375
25.3241
-0.171348
-0.0977081
25.2752
-0.165414
-0.104501
25.2148
-0.158354
-0.109005
25.1707
-0.150088
-0.111797
25.1391
-0.141637
-0.113619
25.1157
-0.134287
-0.11489
25.097
-0.129011
-0.11574
25.0833
-0.124854
-0.11644
25.073
-0.122038
-0.116989
25.0654
-0.119931
-0.117484
25.0597
-0.118633
-0.11779
25.055
-0.117468
-0.118035
25.0518
-0.116771
-0.118198
25.0495
-0.116436
-0.118207
25.048
-0.115649
-0.118139
25.047
-0.115375
-0.117976
25.0462
-0.114595
-0.117739
25.0464
-0.114275
-0.117404
25.0464
-0.113484
-0.11704
25.0473
-0.113064
-0.116683
25.0482
-0.112172
-0.116334
25.0496
-0.111774
-0.116041
25.0513
-0.111138
-0.115865
25.0541
-0.110325
-0.11588
-0.110495
-0.11617
24.9868
-0.000148688
24.9815
-0.000270718
24.989
-0.000586736
25.0015
-0.000974076
25.0244
-0.00183138
25.0651
-0.00317014
25.1092
-0.0052879
25.1697
-0.0085815
25.2458
-0.0135834
25.3331
-0.0206422
25.4165
-0.0301448
25.4744
-0.0422678
25.4529
-0.0560253
25.3718
-0.0699047
25.4149
-0.0821506
25.3352
-0.092121
25.2684
-0.0988912
25.2131
-0.103268
25.1689
-0.106092
25.1352
-0.107985
25.1102
-0.109352
25.0915
-0.110354
25.0778
-0.111158
25.0676
-0.111792
25.0601
-0.112425
25.0544
-0.112941
25.0503
-0.113396
25.0474
-0.113827
25.045
-0.114046
25.0435
-0.114198
25.0424
-0.114261
25.042
-0.114171
25.0417
-0.113964
25.0419
-0.113709
25.0423
-0.113474
25.0434
-0.113214
25.0446
-0.11298
25.0463
-0.112841
25.0488
-0.11288
-0.113193
24.9957
0.00135225
0.00282303
24.9891
0.00411212
0.00575281
24.9784
0.00673358
0.00912599
24.9626
0.00999476
0.0132529
24.9414
0.0130573
0.0184811
24.9121
0.0181119
0.0252518
24.8701
0.0268145
0.0339628
24.8125
0.03729
0.045028
24.7564
0.0294036
0.0587366
24.7194
0.00223465
0.0753671
24.6935
-0.0181748
0.0941954
24.6304
0.00870113
0.114638
24.659
-0.0932879
0.135289
24.7777
-0.193328
0.154757
24.8121
-0.117329
0.171195
24.8382
-0.115467
0.183887
24.8629
-0.118986
0.193258
24.8828
-0.117942
0.200275
24.8995
-0.117605
0.20562
24.9262
-0.129717
0.209828
24.9527
-0.131064
0.213136
24.973
-0.126112
0.215955
24.9888
-0.122647
0.218452
25.0019
-0.120818
0.220712
25.0127
-0.119398
0.222783
25.0221
-0.118795
0.224662
25.0301
-0.118176
0.226328
25.0369
-0.117772
0.227751
25.043
-0.117761
0.228949
25.0486
-0.117836
0.229925
25.0535
-0.117689
0.230659
25.0577
-0.117536
0.231165
25.0619
-0.117866
0.231434
25.0662
-0.118144
0.231565
25.07
-0.117874
0.231478
25.0739
-0.118128
0.23129
25.0778
-0.118101
0.230846
25.0819
-0.118152
0.230331
25.0867
-0.118478
0.229562
-0.118688
0.228048
24.9958
0.00275805
0.00275087
24.9892
0.00825115
0.00560567
24.978
0.0140719
0.00890439
24.9622
0.0200668
0.0129658
24.9405
0.0266664
0.0181378
24.913
0.0344145
0.0248837
24.8799
0.0446459
0.033638
24.8372
0.0594172
0.0449267
24.7741
0.0650286
0.0592253
24.6978
0.0422557
0.0768893
24.6537
-0.0208374
0.0975269
24.5911
0.012602
0.120445
24.6264
-0.198706
0.143706
24.7597
-0.407619
0.165498
24.8424
-0.289841
0.183307
24.9122
-0.281941
0.196728
24.9639
-0.272437
0.206575
25.0048
-0.264479
0.213818
25.0501
-0.27139
0.219351
25.0821
-0.27224
0.223572
25.1007
-0.261556
0.22687
25.1137
-0.252115
0.229601
25.1222
-0.244953
0.232004
25.1285
-0.24166
0.234141
25.1335
-0.239742
0.236069
25.1367
-0.238248
0.237798
25.1388
-0.237328
0.23934
25.1407
-0.237664
0.240687
25.142
-0.237829
0.241833
25.1427
-0.238157
0.242768
25.1435
-0.238793
0.243486
25.1445
-0.23941
0.243989
25.1448
-0.239715
0.244335
25.1452
-0.240416
0.24448
25.1462
-0.241037
0.244462
25.1469
-0.241105
0.244282
25.1481
-0.241675
0.243933
25.15
-0.24229
0.243411
25.152
-0.242466
0.242694
-0.243148
0.241193
24.9959
0.00422799
0.00260331
24.9894
0.0123536
0.00530996
24.9783
0.021408
0.00845483
24.9619
0.0309353
0.012358
24.9392
0.0415967
0.0173827
24.9093
0.0533667
0.0240211
24.8712
0.0675874
0.0328123
24.8246
0.0852761
0.0444408
24.7588
0.102558
0.0596904
24.6637
0.0992432
0.0792469
24.5847
0.00606688
0.103299
-0.00369546
0.00689528
-0.00153596
24.7169
-0.0367849
0.130531
-0.0573903
-0.0347343
-0.0548731
24.5747
0.0227199
0.158336
-0.0939724
0.0258497
-0.0902432
24.7385
-0.213328
0.184289
-0.12289
-0.209189
-0.118163
24.8315
-0.127354
0.203602
-0.119938
-0.122578
-0.114622
24.8933
-0.116475
0.217278
-0.114816
-0.111661
-0.109376
24.9477
-0.11325
0.227089
-0.112428
-0.108135
-0.106954
25.0127
-0.115132
0.234274
-0.113878
-0.109896
-0.108356
25.0547
-0.111569
0.23975
-0.110281
-0.106408
-0.105554
25.0807
-0.108222
0.24386
-0.106677
-0.103707
-0.101735
25.0995
-0.403229
0.246839
25.1125
-0.388504
0.249267
25.1209
-0.376929
0.251338
25.1269
-0.372099
0.253879
25.1311
-0.369248
0.255936
25.1336
-0.367342
0.257892
25.1353
-0.366325
0.259003
25.1356
-0.366509
0.260044
25.1354
-0.367267
0.260775
25.1356
-0.369094
0.261223
25.1347
-0.369762
0.261412
25.134
-0.37141
0.261382
25.1339
-0.372825
0.26093
25.1332
-0.373675
0.260832
25.1324
-0.37468
0.260352
25.1321
-0.375437
0.259762
25.1321
-0.376227
0.259041
25.1323
-0.376937
0.258162
25.1335
-0.377645
0.25712
-0.378159
0.255362
24.9968
0.00539838
0.00238018
24.9906
0.0163946
0.00486027
24.9797
0.0288009
0.00775415
24.9635
0.0420109
0.0113764
24.9405
0.0572022
0.0160969
24.9075
0.0760575
0.0224211
24.8627
0.0979022
0.0310183
24.8046
0.123053
0.042724
24.7367
0.141973
0.0587202
6.14273
0.0380915
0.0804642
0.0536847
0.038783
0.0544124
6.16289
6.14304
6.16263
-0.0116046
6.12545
0.0173732
0.0176271
-0.0153265
-6.11316
6.10104
-0.0325893
0.0232471
-0.0192536
-6.10471
6.09729
0.0201272
0.0291999
-0.0233029
-6.11252
6.14473
-0.257529
0.0352424
-0.026385
-6.16289
6.17718
-0.155046
0.0397847
-0.0283372
-6.19057
6.20172
-0.141956
0.0426849
-0.0296254
-6.2129
6.22737
-0.142799
0.0447126
-0.0305899
-6.24027
6.24749
-0.138042
0.0462599
-0.0314105
-6.25341
6.25868
-0.132954
0.0474896
-0.0321658
-6.26261
6.26683
-0.128857
0.0485548
25.1125
-0.141865
0.273851
-0.142087
-0.140007
-0.137794
-6.27105
-6.27502
-6.27093
-6.27498
25.1203
-0.532908
0.275809
25.124
-0.516179
0.276913
25.1262
-0.511266
0.279567
25.1258
-0.507403
0.281847
25.123
-0.505069
0.284014
25.1194
-0.504991
0.285132
25.1147
-0.505885
0.285929
25.109
-0.507502
0.286173
25.1023
-0.509985
0.285922
25.0957
-0.512036
0.285256
25.0888
-0.514404
0.284274
25.0816
-0.516092
0.282795
25.0747
-0.517812
0.281698
25.0679
-0.51903
0.280172
25.0615
-0.520127
0.278681
25.055
-0.520399
0.276998
25.0492
-0.521
0.275162
25.0448
-0.522123
0.273062
-0.522156
0.270097
24.9985
0.00500709
0.00208206
24.9934
0.0195768
0.0042495
24.9839
0.0351815
0.00678149
24.9692
0.0521129
0.00996652
24.9471
0.0728297
0.0141483
24.9148
0.0993208
0.019549
24.8658
0.133718
0.0276083
24.7927
0.177472
0.038454
6.17338
0.227706
0.0538373
6.16622
6.17405
6.16656
-0.00790435
6.1582
0.0491607
0.0120507
-0.0110826
6.13231
0.0169703
-6.1611
0.0201843
0.0114099
0.0202117
0.0113047
-0.0402048
-0.0151027
-6.07914
6.04551
0.023275
-0.00201322
0.00346897
-0.00221927
0.00363968
0.0224525
-0.0199768
-6.04385
6.05748
0.0307137
0.0519826
-0.0406553
0.0514906
-0.0403102
-0.0471524
-0.0253782
-6.09778
6.1387
0.0383842
-0.0513015
-0.12942
-0.0520116
-0.128858
0.307401
-0.0286378
-6.1692
6.1805
0.042737
-0.0501613
-0.0539198
-0.0509651
-0.0531256
0.182669
-0.0299963
-6.19418
6.20876
0.0448585
-0.0509123
-0.0508093
-0.0515748
-0.0501404
0.173993
-0.0306956
-6.22295
6.23505
0.0461975
-0.048757
-0.0494323
-0.0493586
-0.048861
0.168759
-0.0313433
-6.24471
6.25182
0.0473337
-0.0455893
-0.0463536
-0.046445
-0.0457767
0.160961
-0.0322376
-6.25825
6.26266
0.0486079
-0.0432538
-0.0440802
-0.0439758
-0.0434081
0.153854
-0.0333908
-6.267
6.2695
0.0500217
-0.0413304
-0.0422854
-0.0419831
-0.0414468
0.147857
-6.27239
-0.0344579
6.27512
-0.161809
0.0516505
25.0724
-0.637394
0.283244
-6.27757
-6.27186
-6.27835
-6.27378
25.0492
-0.623033
0.282585
25.0216
-0.612902
0.282159
24.9916
-0.60641
0.280724
24.9613
-0.604456
0.278645
24.9306
-0.605456
0.276014
24.9006
-0.60823
0.272081
24.8716
-0.61221
0.267691
24.8434
-0.616664
0.262755
24.817
-0.62115
0.257468
24.7923
-0.625282
0.251817
24.7695
-0.628692
0.246746
24.7482
-0.631111
0.241595
24.7287
-0.63292
0.236779
24.7105
-0.633782
0.232317
24.6943
-0.634066
0.228087
24.6797
-0.634074
0.223911
24.667
-0.634469
0.219573
-0.636069
0.21451
25.0021
0.00146796
0.00173114
24.9999
0.0202506
0.00349709
24.9922
0.0402858
0.00555926
24.9801
0.0603589
0.00814078
24.9626
0.0849437
0.0115105
24.9366
0.118231
0.0155399
24.8941
0.165358
0.022267
24.8225
0.23381
0.0308878
6.17233
0.339943
0.0433449
6.17151
6.17259
6.17163
-0.00617935
-0.0641283
6.14677
0.0862198
0.00964361
-0.00199145
-0.0192229
-1.52789
1.52263
0.0238191
0.00264833
-0.00287277
-0.0184259
-1.50424
1.49174
0.0300592
0.00369971
-0.00426393
-1.46941
0.0528404
1.47946
-0.064128
0.00543655
-0.00633818
-1.52878
0.153832
1.54022
-0.166847
0.00785399
-0.00810963
-1.53646
0.0601814
-0.0635324
1.53831
0.00957195
-1.54779
-0.00768752
0.059823
-0.0642992
0.00926361
1.55068
-0.00688023
0.0568515
-1.55668
1.55816
-0.0599406
0.00848904
-0.00625889
0.0522341
-1.56102
1.56149
-0.0545144
0.00806903
-0.00617092
0.0494316
-1.56185
1.56181
-0.0515943
0.0083588
-0.00672181
0.0472614
-1.5609
1.56042
-0.049359
0.00930197
-1.55398
-0.0306938
0.176032
6.16011
-0.171188
0.0477198
-1.53569
-1.55492
-1.5374
23.8215
-0.745831
0.14517
-6.10185
-5.78703
-6.10583
-5.77817
23.8479
-0.714728
0.148113
23.8659
-0.699887
0.149103
23.879
-0.689955
0.147461
23.8886
-0.684511
0.144242
23.8957
-0.682431
0.140042
23.9026
-0.682775
0.134405
23.9099
-0.684665
0.128359
23.9184
-0.687337
0.122025
23.9282
-0.690062
0.11571
23.9394
-0.69231
0.10944
23.9513
-0.693842
0.1041
23.9641
-0.694418
0.0990552
23.977
-0.694066
0.0945781
23.9899
-0.69289
0.0905557
24.0027
-0.691058
0.0868108
24.0152
-0.688762
0.0830256
24.027
-0.686174
0.0786611
-0.683345
0.0726518
25.009
0.000174859
0.00131836
25.0097
0.0183398
0.00264059
25.0063
0.0417565
0.0041536
24.9994
0.0643026
0.0059962
24.9894
0.0909311
0.00832175
24.9758
0.126843
0.0108293
24.9563
0.177364
0.0152444
24.9258
0.254112
0.0202969
6.21358
0.379837
0.0270884
6.22196
6.21367
6.22241
-0.00363664
-0.104329
6.19807
0.117726
0.00574079
-0.00107812
-0.039055
-1.54191
1.53575
0.0448331
0.00144723
-0.00116102
-0.0812597
-1.50569
1.4872
0.0992695
0.00161614
-9.94258e-05
0.00457903
-0.0748561
0.075092
-0.00482489
0.000109364
-0.00411579
-0.222961
0.0153932
-0.0259059
0.00582011
0.231771
-1.15466
-0.00426714
0.0558676
-0.0752254
0.00327799
1.17501
-0.00254368
0.04832
-1.22511
1.23797
-0.0572195
-0.00141733
0.000971134
0.0510139
-1.27994
1.29434
-0.0606214
-0.0057668
0.00450532
0.0524466
-1.33169
1.34269
-0.0589772
-0.00897673
0.00737222
0.0540764
-1.36886
1.37707
-0.0586112
-0.0110516
-1.40986
0.0392645
0.20478
5.80804
-0.220456
-0.0441257
-1.49803
-1.38497
-1.49465
24.0222
-0.668299
-0.229472
-5.85367
-6.16184
-5.8282
-6.16287
24.0408
-0.639667
-0.226735
24.0657
-0.630084
-0.221616
24.0958
-0.624187
-0.215841
24.1291
-0.620438
-0.209654
24.1641
-0.618744
-0.203216
24.1997
-0.618626
-0.196785
24.235
-0.619288
-0.190586
24.2688
-0.620221
-0.184775
24.3005
-0.620967
-0.179423
24.3297
-0.621427
-0.174586
24.3563
-0.621566
-0.170235
24.3805
-0.621232
-0.166438
24.4022
-0.620139
-0.163131
24.4215
-0.618531
-0.160358
24.4387
-0.616498
-0.158191
24.4542
-0.614109
-0.156839
24.4681
-0.610989
-0.15657
-0.606162
-0.157801
25.0082
-0.00474536
0.000855902
25.0152
0.010529
0.00174288
25.0217
0.033877
0.00267962
25.0255
0.0586864
0.00372912
25.0247
0.0892263
0.00491612
25.029
0.119603
0.00597036
25.0409
0.161513
0.00753417
25.0692
0.221211
0.0085417
6.27595
0.310774
0.00870121
6.28819
6.27752
6.2917
-0.000852776
-0.10927
6.28355
0.101158
0.00137212
-7.46477e-05
-0.044224
-1.57791
1.57965
0.0424541
0.000105785
0.000647089
-0.0813885
-1.60013
1.61657
0.0649998
-0.000680366
0.00377611
-0.0263765
-1.71191
1.7498
0.0587162
-0.00268981
-0.0217557
-0.0273068
-0.0221977
0.00530013
0.110416
-1.71011
1.67936
-0.0791255
-0.00576766
0.105932
-1.60925
0.00619192
1.59825
-0.0938058
-0.0072727
0.00677988
0.0748454
-1.58351
-0.00817688
1.58137
-0.0713016
0.00704462
0.0544069
-1.57816
1.57667
-0.0512864
-0.0086725
0.00717797
0.0562143
-1.57585
1.5744
-0.0529363
-0.00901026
0.00735629
0.050745
-1.57351
1.57283
-0.0480951
-0.00932391
0.00753534
0.047424
-1.56992
1.57018
-0.0456638
-0.00955808
-1.57013
0.031696
0.179784
6.27403
-0.156472
-0.0475246
-1.57025
-1.57022
-1.57091
25.0813
-0.520593
-0.261134
-6.27619
-6.27015
-6.28024
-6.2749
25.0794
-0.511992
-0.259963
25.0754
-0.501366
-0.258268
25.0718
-0.49592
-0.257138
25.0689
-0.492099
-0.256265
25.0671
-0.490337
-0.255476
25.0658
-0.489168
-0.254761
25.0649
-0.488427
-0.254108
25.0643
-0.487781
-0.253484
25.0638
-0.486773
-0.252859
25.0633
-0.485744
-0.252227
25.0632
-0.48473
-0.251814
25.0628
-0.48339
-0.25094
25.0621
-0.48124
-0.250347
25.0618
-0.47967
-0.249865
25.0617
-0.477453
-0.249671
25.0619
-0.474974
-0.249933
25.0624
-0.471715
-0.250807
-0.468225
-0.252171
25.0068
-0.0091082
0.000463767
25.0167
0.000104282
0.000909637
25.0306
0.0192199
0.0012894
25.0388
0.0495643
0.0015865
25.0562
0.0707338
0.00169666
25.0795
0.0952709
0.00142341
25.1172
0.123139
0.000408462
25.1824
0.15644
-0.00203588
6.3293
0.197805
-0.00711915
6.31826
6.33367
6.31701
-0.0859345
0.00148624
6.34758
0.0684135
-0.00228054
-0.0329684
0.00351419
6.42088
0.0882633
-0.00506119
-0.031152
-0.0332377
-0.0303783
-6.37988
-0.0296148
0.00732864
6.49265
0.0821489
-0.010435
-0.0289229
-0.0287951
-0.0312949
-6.45299
-0.00924497
0.0129514
-6.54088
6.49981
-0.0583151
-0.0189567
0.0631297
-0.0106315
0.0623651
0.035413
0.0196254
-6.49247
6.47395
-0.145075
-0.028786
0.0519433
0.0345343
0.0510712
0.0585228
-6.45025
0.0249294
6.40642
-0.183759
-0.036622
0.0576766
0.0619903
0.0611661
0.0560362
0.0281993
-6.36629
6.33847
-0.176921
-0.0416182
0.0539695
0.0550825
0.0530505
0.0454163
0.0302718
-6.32495
6.31824
-0.157311
-0.0448186
0.0446359
0.0445991
0.0439142
0.0439163
0.0315161
-6.31447
6.30698
-0.152194
-0.0467512
0.0443625
0.0431274
0.0435598
0.0431095
0.0321231
-6.29864
6.28995
-0.141649
-0.0477837
0.0406361
0.0423866
0.0399214
0.0382308
0.03241
-6.28268
6.27498
-0.124872
-0.0482515
0.0353023
0.0385715
0.036354
0.136399
-6.27351
0.0326967
6.27372
-0.12083
-0.0484597
25.0769
-0.380995
-0.26176
-6.27202
-6.27018
-6.27221
-6.26978
25.0691
-0.373609
-0.260138
25.0643
-0.366847
-0.258862
25.0604
-0.36219
-0.258255
25.0578
-0.359366
-0.257718
25.0556
-0.357302
-0.25712
25.0541
-0.356326
-0.256454
25.0533
-0.355671
-0.255719
25.0526
-0.354636
-0.25492
25.0527
-0.35407
-0.254069
25.0528
-0.352881
-0.253161
25.0533