/*--------------------------------*- C++ -*----------------------------------*\
| =========                 |                                                 |
| \\      /  F ield         | OpenFOAM: The Open Source CFD Toolbox           |
|  \\    /   O peration     | Version:  2306                                  |
|   \\  /    A nd           | Website:  www.openfoam.com                      |
|    \\/     M anipulation  |                                                 |
\*---------------------------------------------------------------------------*/
FoamFile
{
    version     2.0;
    format      ascii;
    arch        "LSB;label=32;scalar=64";
    class       volVectorField;
    location    "1.05";
    object      U;
}
// * * * * * * * * * * * * * * * * * * * * * * * * * * * * * * * * * * * * * //

dimensions      [0 1 -1 0 0 0 0];

internalField   nonuniform List<vector> 
111542
(
(99.9933 0.00520414 0.00301079)
(99.9709 0.0106028 0.00623927)
(99.9295 0.0161766 0.00980104)
(99.8679 0.0220831 0.0141575)
(99.7846 0.0280673 0.0196878)
(99.6775 0.033347 0.0268362)
(99.5456 0.03605 0.0358626)
(99.3912 0.0331926 0.0472529)
(99.2236 0.0201224 0.0614975)
(99.063 -0.00958076 0.078611)
(98.9425 -0.0615685 0.0981222)
(98.9029 -0.133471 0.119151)
(98.9703 -0.207073 0.140667)
(99.1355 -0.262627 0.160589)
(99.3538 -0.289482 0.177286)
(99.5768 -0.297325 0.190429)
(99.7778 -0.295218 0.200249)
(99.9489 -0.287942 0.20768)
(100.09 -0.278527 0.213492)
(100.204 -0.269078 0.21836)
(100.293 -0.261008 0.222437)
(100.361 -0.254574 0.226076)
(100.411 -0.249556 0.229638)
(100.449 -0.24626 0.232892)
(100.478 -0.244386 0.235809)
(100.499 -0.243372 0.23852)
(100.515 -0.243241 0.240732)
(100.526 -0.243782 0.242413)
(100.534 -0.244618 0.243689)
(100.54 -0.245563 0.244552)
(100.544 -0.24653 0.244982)
(100.548 -0.247523 0.244944)
(100.55 -0.248365 0.244636)
(100.553 -0.249037 0.244129)
(100.556 -0.249581 0.243451)
(100.56 -0.250071 0.242619)
(100.566 -0.250628 0.241599)
(100.573 -0.251178 0.240565)
(100.582 -0.251802 0.239591)
(100.598 -0.252758 0.238806)
(99.9936 0.0155138 0.00294823)
(99.9716 0.0315531 0.00603657)
(99.9307 0.0485132 0.00955523)
(99.8694 0.0667836 0.0138611)
(99.7854 0.0857775 0.0193235)
(99.6749 0.103402 0.0263747)
(99.5348 0.114717 0.035461)
(99.3644 0.11087 0.0470987)
(99.1699 0.0771943 0.0617662)
(98.9703 -0.00740748 0.0796476)
(98.8069 -0.160294 0.100507)
(98.746 -0.374865 0.122832)
(98.8321 -0.59827 0.146284)
(99.0433 -0.758366 0.168257)
(99.3071 -0.836465 0.186411)
(99.5588 -0.862566 0.200166)
(99.7748 -0.859353 0.210281)
(99.9533 -0.840588 0.21793)
(100.097 -0.815722 0.224008)
(100.21 -0.790142 0.229059)
(100.297 -0.767373 0.233428)
(100.361 -0.749617 0.237505)
(100.409 -0.736749 0.241453)
(100.444 -0.728223 0.245068)
(100.47 -0.721919 0.248178)
(100.49 -0.716462 0.250731)
(100.504 -0.712052 0.252658)
(100.514 -0.708676 0.253962)
(100.521 -0.705933 0.254702)
(100.526 -0.703599 0.254937)
(100.53 -0.701614 0.254735)
(100.533 -0.700007 0.254176)
(100.535 -0.698608 0.253374)
(100.537 -0.697425 0.252416)
(100.54 -0.696562 0.251354)
(100.543 -0.69616 0.250223)
(100.548 -0.696401 0.249044)
(100.554 -0.697219 0.247872)
(100.563 -0.698698 0.246771)
(100.576 -0.700981 0.245931)
(99.9939 0.0254729 0.0027921)
(99.9729 0.0519102 0.00570598)
(99.9336 0.0806178 0.00905817)
(99.8737 0.112472 0.0131865)
(99.7894 0.147213 0.0184669)
(99.6742 0.182506 0.0253669)
(99.5205 0.212015 0.0344387)
(99.3207 0.222057 0.0463258)
(99.0721 0.185919 0.0617228)
(98.7918 0.0550426 0.0812226)
(98.5398 -0.27982 0.105154)
(98.4283 -0.742225 0.132503)
(98.5529 -1.15968 0.158501)
(98.8596 -1.39669 0.183202)
(99.2061 -1.48997 0.202947)
(99.5074 -1.51309 0.217013)
(99.7512 -1.49253 0.226917)
(99.943 -1.45179 0.234434)
(100.091 -1.40566 0.240676)
(100.203 -1.36041 0.246155)
(100.286 -1.32149 0.251313)
(100.345 -1.28882 0.256561)
(100.388 -1.27055 0.261835)
(100.42 -1.26398 0.266685)
(100.445 -1.26133 0.270654)
(100.464 -1.25908 0.273398)
(100.477 -1.25688 0.274732)
(100.486 -1.25473 0.27466)
(100.491 -1.2524 0.273349)
(100.493 -1.24979 0.271068)
(100.494 -1.24697 0.268122)
(100.493 -1.24407 0.264816)
(100.492 -1.24118 0.26142)
(100.491 -1.23845 0.258148)
(100.489 -1.23606 0.255135)
(100.489 -1.23424 0.252452)
(100.489 -1.23318 0.250112)
(100.491 -1.23304 0.24811)
(100.495 -1.23383 0.246484)
(100.503 -1.23528 0.245473)
(99.9945 0.0346369 0.00255141)
(99.9756 0.0709552 0.00521092)
(99.9398 0.111362 0.00828357)
(99.884 0.15792 0.0120986)
(99.8027 0.211833 0.0170305)
(99.6863 0.272586 0.0235628)
(99.5203 0.335947 0.0323201)
(99.2839 0.389347 0.0440826)
(98.9482 0.403088 0.0598176)
(98.4489 0.20264 0.0807373)
(98.1914 0.0236455 0.0873814)
(97.8448 -0.632161 0.102772)
(97.9104 -1.43417 0.116769)
(98.3899 -1.94833 0.129574)
(98.8935 -2.09677 0.14208)
(99.2887 -2.12242 0.14983)
(99.6046 -2.07864 0.154453)
(99.8417 -2.0034 0.157617)
(100.017 -1.92541 0.160273)
(100.148 -1.85745 0.162825)
(100.317 -1.92157 0.274921)
(100.359 -1.85855 0.28516)
(100.375 -1.81689 0.294212)
(100.386 -1.79369 0.301032)
(100.397 -1.77815 0.305395)
(100.402 -1.7664 0.307064)
(100.401 -1.75696 0.305987)
(100.394 -1.74859 0.302455)
(100.383 -1.7405 0.29702)
(100.369 -1.73251 0.290335)
(100.353 -1.72475 0.283051)
(100.336 -1.71747 0.275748)
(100.317 -1.71092 0.268873)
(100.297 -1.70537 0.262727)
(100.277 -1.70103 0.25746)
(100.257 -1.69816 0.253087)
(100.237 -1.69699 0.249518)
(100.218 -1.69771 0.246619)
(100.2 -1.7003 0.244302)
(100.18 -1.70364 0.242779)
(99.9956 0.0422911 0.0022262)
(99.9802 0.0871294 0.0045423)
(99.9506 0.138244 0.00722052)
(99.9035 0.199445 0.0105584)
(99.8325 0.274551 0.0148978)
(99.7259 0.367297 0.0206839)
(99.5641 0.480513 0.0285197)
(99.3144 0.612939 0.0391784)
(98.8715 0.751344 0.0536583)
(98.5272 0.759322 0.0588513)
(97.7139 0.371034 0.0716935)
(96.9087 -0.69287 0.0881294)
(97.0006 -2.34606 0.102644)
(98.1239 -2.95764 0.116187)
(98.8531 -2.99387 0.13196)
(99.3294 -2.94279 0.139931)
(99.6907 -2.81235 0.144863)
(99.9266 -2.67124 0.149109)
(100.082 -2.5504 0.15319)
(100.183 -2.45928 0.157461)
(100.253 -2.41819 0.166605)
(100.171 -2.55375 0.329744)
(100.045 -2.54715 0.346387)
(99.9269 -2.52466 0.356916)
(99.8226 -2.49446 0.36038)
(99.7243 -2.464 0.356592)
(99.6305 -2.4343 0.346221)
(99.542 -2.40456 0.330736)
(99.459 -2.37463 0.31201)
(99.3809 -2.34501 0.291946)
(99.3072 -2.31644 0.272217)
(99.2372 -2.28959 0.254115)
(99.1704 -2.26506 0.238468)
(99.1061 -2.24331 0.22565)
(99.0439 -2.22466 0.215645)
(98.9836 -2.20933 0.208138)
(98.9251 -2.19753 0.202612)
(98.869 -2.18962 0.198484)
(98.8168 -2.18639 0.195215)
(98.7634 -2.18981 0.192529)
(99.997 0.0475303 0.0018179)
(99.9867 0.0984234 0.00370783)
(99.9667 0.157689 0.00587722)
(99.9341 0.230993 0.00856433)
(99.8833 0.32524 0.0120328)
(99.804 0.449805 0.0166151)
(99.6767 0.618434 0.0227526)
(99.465 0.851579 0.0309761)
(99.0449 1.18097 0.0418771)
(98.6355 1.3443 0.0461021)
(97.681 1.48906 0.0437874)
(95.5708 0.72587 0.0396463)
(94.3607 -3.41871 0.0540731)
(98.1478 -4.73289 0.0469221)
(98.6895 -3.9746 0.0569812)
(99.2929 -3.90566 0.0756237)
(99.6752 -3.6838 0.104372)
(99.8026 -3.46026 0.132142)
(99.7864 -3.28966 0.146313)
(99.6876 -3.14176 0.142388)
(98.4605 -2.90734 0.24084)
(95.2223 -2.55792 0.216548)
(95.254 -2.66219 0.209552)
(95.3116 -2.71518 0.200258)
(95.3624 -2.73511 0.188991)
(95.4058 -2.73489 0.176254)
(95.4469 -2.71917 0.162855)
(95.4875 -2.69098 0.149524)
(95.5282 -2.65389 0.136802)
(95.569 -2.61168 0.125059)
(95.6104 -2.56785 0.114515)
(95.6527 -2.5253 0.105256)
(95.696 -2.48626 0.0972316)
(95.7401 -2.45223 0.0902811)
(95.7847 -2.42406 0.0841481)
(95.8295 -2.40206 0.0785024)
(95.8744 -2.38619 0.0729583)
(95.9192 -2.37634 0.067106)
(95.9631 -2.37285 0.0605875)
(96.0127 -2.3778 0.0534671)
(99.9989 0.0495063 0.00135853)
(99.9949 0.102852 0.00277995)
(99.9872 0.16592 0.00436499)
(99.9742 0.245641 0.00626798)
(99.9534 0.351103 0.00863554)
(99.9199 0.495971 0.0116229)
(99.8656 0.70241 0.015379)
(99.776 1.00917 0.0199541)
(99.6035 1.48993 0.0250999)
(99.3358 1.89233 0.0271382)
(98.6184 2.83389 0.0239338)
(95.4823 5.85162 0.0179931)
(77.0705 -4.22483 0.0318546)
(102.658 -10.2815 0.0228617)
(50.8445 -2.49046 -1.3865)
(75.7669 -4.42169 -0.409502)
(80.6646 -4.0071 -0.331796)
(84.212 -3.91614 -0.234971)
(86.7356 -3.82242 -0.141436)
(88.5061 -3.70284 -0.0505877)
(93.5914 -3.89355 -0.169559)
(96.4516 -3.37658 -0.314056)
(96.6273 -3.28059 -0.313594)
(96.7869 -3.20494 -0.302662)
(96.8957 -3.14 -0.285325)
(96.9639 -3.07903 -0.264049)
(97.006 -3.02002 -0.240899)
(97.0307 -2.96277 -0.217959)
(97.0442 -2.90759 -0.197067)
(97.0521 -2.85496 -0.179559)
(97.0593 -2.8055 -0.166175)
(97.0699 -2.75979 -0.157084)
(97.0866 -2.7183 -0.151991)
(97.1109 -2.68133 -0.150293)
(97.1432 -2.64897 -0.151246)
(97.1834 -2.62112 -0.154124)
(97.2307 -2.59747 -0.158359)
(97.2842 -2.57749 -0.163575)
(97.3424 -2.56015 -0.169564)
(97.4181 -2.54318 -0.175974)
(100.001 0.0476019 0.000985219)
(100.004 0.0990588 0.00186368)
(100.01 0.160352 0.00280177)
(100.018 0.238512 0.00385485)
(100.032 0.34282 0.00502564)
(100.052 0.487009 0.00626184)
(100.086 0.692613 0.00739395)
(100.148 0.995522 0.0079817)
(100.293 1.45793 0.00702639)
(100.343 1.86998 0.00660956)
(100.622 2.85704 0.00232428)
(102.459 5.3828 -0.0062046)
(111.201 3.84524 -0.036611)
(109.042 -6.7916 0.0264041)
(102.734 -6.78144 -0.032672)
(101.097 -4.95666 -0.055556)
(100.68 -3.96659 -0.070007)
(100.533 -3.43706 -0.0775998)
(100.462 -3.13461 -0.0796239)
(100.401 -2.95986 -0.0785218)
(100.312 -2.72872 -0.160828)
(100.321 -2.31542 -0.28844)
(100.296 -2.22153 -0.294655)
(100.273 -2.1651 -0.297765)
(100.254 -2.13077 -0.298219)
(100.235 -2.10563 -0.296005)
(100.22 -2.0851 -0.291152)
(100.207 -2.06793 -0.28412)
(100.198 -2.05338 -0.275644)
(100.191 -2.04082 -0.266531)
(100.187 -2.02987 -0.257522)
(100.185 -2.02028 -0.249224)
(100.185 -2.0119 -0.242069)
(100.186 -2.00461 -0.236313)
(100.188 -1.99828 -0.232057)
(100.191 -1.99274 -0.229297)
(100.195 -1.98776 -0.227977)
(100.201 -1.98289 -0.228018)
(100.208 -1.97718 -0.229289)
(100.22 -1.96846 -0.231353)
(100.003 0.0417002 0.00048064)
(100.012 0.0868775 0.000889951)
(100.03 0.140718 0.00126126)
(100.06 0.209241 0.00152842)
(100.104 0.300043 0.00158182)
(100.17 0.423361 0.00120896)
(100.274 0.593417 2.96254e-06)
(100.441 0.829679 -0.00277688)
(100.759 1.15642 -0.00850421)
(100.985 1.3963 -0.0106681)
(101.841 1.85215 -0.0184081)
(103.459 1.75109 -0.0331733)
(105.239 -0.264061 -0.0519015)
(104.771 -2.84108 -0.0337937)
(102.967 -3.54231 -0.0533113)
(101.758 -3.30776 -0.069883)
(101.144 -2.94699 -0.0801218)
(100.82 -2.64819 -0.0863274)
(100.634 -2.42867 -0.0904275)
(100.51 -2.26894 -0.093626)
(100.421 -2.14558 -0.0976735)
(100.318 -1.87031 -0.259056)
(100.279 -1.84397 -0.262193)
(100.249 -1.82622 -0.263639)
(100.228 -1.81481 -0.263588)
(100.213 -1.80567 -0.26221)
(100.202 -1.79664 -0.259692)
(100.193 -1.78719 -0.256339)
(100.188 -1.77719 -0.252522)
(100.185 -1.76657 -0.248579)
(100.184 -1.75533 -0.244785)
(100.184 -1.74364 -0.241337)
(100.186 -1.73168 -0.238359)
(100.188 -1.71968 -0.235916)
(100.192 -1.70779 -0.234037)
(100.197 -1.69613 -0.232744)
(100.202 -1.68473 -0.232065)
(100.209 -1.67347 -0.23205)
(100.219 -1.66223 -0.232765)
(100.239 -1.65117 -0.234317)
(100.004 0.0323541 0.000109499)
(100.019 0.0674079 0.000162695)
(100.047 0.109048 3.3095e-05)
(100.092 0.161631 -0.000372824)
(100.159 0.230225 -0.00123692)
(100.258 0.320684 -0.00289008)
(100.404 0.439267 -0.00586829)
(100.623 0.59035 -0.0110304)
(100.958 0.769969 -0.0197704)
(101.445 0.853491 -0.033864)
(102.085 0.755011 -0.0550866)
(102.762 0.226307 -0.0845009)
(103.119 -0.759314 -0.118054)
(102.87 -1.58307 -0.148523)
(102.23 -1.8808 -0.178425)
(101.605 -1.87901 -0.201553)
(101.166 -1.78875 -0.216429)
(100.883 -1.68213 -0.225565)
(100.694 -1.58308 -0.231414)
(100.56 -1.49737 -0.235341)
(100.467 -1.42498 -0.238201)
(100.403 -1.36281 -0.240702)
(100.356 -1.31437 -0.242889)
(100.32 -1.27546 -0.244766)
(100.293 -1.24496 -0.246338)
(100.272 -1.22127 -0.247588)
(100.255 -1.20249 -0.248484)
(100.242 -1.18723 -0.249007)
(100.231 -1.17453 -0.249162)
(100.223 -1.16369 -0.248985)
(100.218 -1.15416 -0.248534)
(100.214 -1.14555 -0.247883)
(100.212 -1.13761 -0.247112)
(100.211 -1.13016 -0.246307)
(100.212 -1.12304 -0.245563)
(100.214 -1.11618 -0.244974)
(100.218 -1.10951 -0.244644)
(100.223 -1.10295 -0.244685)
(100.23 -1.09651 -0.245221)
(100.241 -1.09041 -0.246388)
(100.005 0.0204569 -0.000180746)
(100.024 0.0425278 -0.000449736)
(100.059 0.0687344 -0.000934663)
(100.114 0.101421 -0.00179856)
(100.196 0.143478 -0.00330076)
(100.312 0.197314 -0.00580759)
(100.475 0.264361 -0.00988856)
(100.703 0.342061 -0.0163286)
(101.012 0.417394 -0.0262068)
(101.413 0.450989 -0.0407596)
(101.878 0.386823 -0.06113)
(102.308 0.150624 -0.0878366)
(102.53 -0.267092 -0.118331)
(102.415 -0.691687 -0.147984)
(102.031 -0.930363 -0.174555)
(101.578 -0.985304 -0.195154)
(101.205 -0.953794 -0.209493)
(100.936 -0.898685 -0.218819)
(100.744 -0.843179 -0.224956)
(100.601 -0.79372 -0.229124)
(100.494 -0.752838 -0.232083)
(100.415 -0.723377 -0.234373)
(100.354 -0.704222 -0.236359)
(100.309 -0.692559 -0.238104)
(100.274 -0.686243 -0.239596)
(100.248 -0.683689 -0.240819)
(100.228 -0.683404 -0.241762)
(100.213 -0.684234 -0.242411)
(100.202 -0.685445 -0.242759)
(100.194 -0.686604 -0.242813)
(100.189 -0.687428 -0.242596)
(100.186 -0.687782 -0.242143)
(100.185 -0.687624 -0.241501)
(100.185 -0.687021 -0.240727)
(100.187 -0.685772 -0.239925)
(100.19 -0.684099 -0.239158)
(100.194 -0.682097 -0.238517)
(100.201 -0.679815 -0.238126)
(100.21 -0.677313 -0.238154)
(100.228 -0.674558 -0.238893)
(100.006 0.00699673 -0.00035255)
(100.026 0.014511 -0.000730413)
(100.065 0.0234558 -0.00144117)
(100.125 0.0344739 -0.00249434)
(100.212 0.0485998 -0.00434138)
(100.336 0.0663797 -0.00728731)
(100.505 0.0878068 -0.0119401)
(100.731 0.111379 -0.0189681)
(101.022 0.131964 -0.0294306)
(101.371 0.136931 -0.0440228)
(101.745 0.10644 -0.063398)
(102.066 0.0201062 -0.0874789)
(102.232 -0.118381 -0.114671)
(102.168 -0.261414 -0.141991)
(101.898 -0.351735 -0.165963)
(101.542 -0.379128 -0.185103)
(101.213 -0.372732 -0.199099)
(100.954 -0.356959 -0.20851)
(100.761 -0.340801 -0.214854)
(100.615 -0.326427 -0.219268)
(100.503 -0.314506 -0.222525)
(100.419 -0.305423 -0.225097)
(100.356 -0.298387 -0.227287)
(100.309 -0.29253 -0.229156)
(100.273 -0.287133 -0.230865)
(100.247 -0.281892 -0.232421)
(100.227 -0.276626 -0.233782)
(100.211 -0.271244 -0.234909)
(100.2 -0.265756 -0.235761)
(100.191 -0.260222 -0.236313)
(100.186 -0.254712 -0.236558)
(100.182 -0.249292 -0.236507)
(100.18 -0.244032 -0.236185)
(100.18 -0.239025 -0.235599)
(100.181 -0.2341 -0.23503)
(100.183 -0.229408 -0.23444)
(100.187 -0.225008 -0.233904)
(100.193 -0.220935 -0.233562)
(100.201 -0.217328 -0.233598)
(100.213 -0.214697 -0.234343)
(99.9938 0.00514214 0.00867309)
(99.9725 0.0104016 0.0178857)
(99.933 0.0159344 0.0283068)
(99.8744 0.021794 0.04106)
(99.795 0.0277142 0.0572134)
(99.6927 0.0329039 0.0779888)
(99.5666 0.035672 0.104443)
(99.419 0.0330632 0.137952)
(99.259 0.0204145 0.179734)
(99.1056 -0.00854783 0.229984)
(98.9912 -0.0592824 0.287774)
(98.9555 -0.129862 0.350485)
(99.0234 -0.201188 0.413894)
(99.1852 -0.254361 0.472428)
(99.3977 -0.279695 0.521534)
(99.6137 -0.286851 0.560108)
(99.8073 -0.284395 0.589072)
(99.9713 -0.276851 0.610797)
(100.106 -0.26713 0.627399)
(100.212 -0.2575 0.640582)
(100.295 -0.249063 0.651173)
(100.358 -0.242142 0.660146)
(100.404 -0.236705 0.668313)
(100.438 -0.233025 0.675561)
(100.464 -0.230933 0.681887)
(100.484 -0.23006 0.687463)
(100.499 -0.230187 0.69199)
(100.511 -0.231074 0.695507)
(100.521 -0.232414 0.698227)
(100.528 -0.23395 0.700169)
(100.534 -0.235503 0.701316)
(100.54 -0.236963 0.701652)
(100.545 -0.238248 0.701434)
(100.55 -0.239327 0.700758)
(100.555 -0.240212 0.69965)
(100.561 -0.240962 0.698112)
(100.567 -0.241641 0.69609)
(100.574 -0.2423 0.69376)
(100.584 -0.24303 0.69114)
(100.6 -0.244023 0.688255)
(99.994 0.0152968 0.00847166)
(99.9731 0.0310248 0.0173892)
(99.9342 0.0477808 0.0276259)
(99.8758 0.0658315 0.0401909)
(99.7955 0.0845882 0.0561583)
(99.6898 0.101991 0.0767928)
(99.5555 0.113379 0.103474)
(99.3921 0.110054 0.137764)
(99.2053 0.0775326 0.181105)
(99.0132 -0.00474055 0.234252)
(98.8557 -0.153542 0.296593)
(98.799 -0.361615 0.365643)
(98.8855 -0.579389 0.436173)
(99.0919 -0.735663 0.500919)
(99.3482 -0.810675 0.553731)
(99.5919 -0.83577 0.59376)
(99.8005 -0.832362 0.623197)
(99.9723 -0.813387 0.645145)
(100.11 -0.787993 0.662008)
(100.217 -0.761706 0.675262)
(100.299 -0.73784 0.685881)
(100.36 -0.718538 0.695064)
(100.405 -0.704054 0.703282)
(100.437 -0.694024 0.7103)
(100.461 -0.686735 0.716008)
(100.479 -0.681259 0.720564)
(100.493 -0.677681 0.724094)
(100.503 -0.675963 0.726739)
(100.511 -0.675663 0.72863)
(100.517 -0.676306 0.729844)
(100.522 -0.677526 0.730437)
(100.526 -0.67904 0.730483)
(100.53 -0.680603 0.730101)
(100.534 -0.68211 0.729366)
(100.537 -0.68356 0.728305)
(100.542 -0.685022 0.726916)
(100.547 -0.68664 0.725169)
(100.554 -0.688522 0.723063)
(100.562 -0.690759 0.72058)
(100.577 -0.693402 0.71779)
(99.9943 0.0250783 0.00802381)
(99.9744 0.0510922 0.0164645)
(99.9369 0.0793628 0.0262223)
(99.8798 0.11074 0.0382878)
(99.7991 0.144973 0.0537745)
(99.6886 0.179796 0.0740663)
(99.5409 0.209043 0.100844)
(99.3484 0.219297 0.136107)
(99.1082 0.184299 0.182014)
(98.837 0.056293 0.240415)
(98.5932 -0.271353 0.311862)
(98.4852 -0.723709 0.392775)
(98.6067 -1.13058 0.474917)
(98.9059 -1.36072 0.549421)
(99.2425 -1.45104 0.607288)
(99.5347 -1.47414 0.64853)
(99.771 -1.45393 0.677573)
(99.9569 -1.41275 0.699049)
(100.1 -1.36532 0.71584)
(100.208 -1.31792 0.729234)
(100.288 -1.27561 0.739827)
(100.346 -1.23805 0.749247)
(100.387 -1.21578 0.757804)
(100.418 -1.20683 0.764853)
(100.441 -1.20341 0.769975)
(100.459 -1.20215 0.773182)
(100.47 -1.2027 0.774664)
(100.477 -1.20485 0.774643)
(100.48 -1.20799 0.773367)
(100.482 -1.21158 0.771111)
(100.482 -1.2152 0.768151)
(100.482 -1.21862 0.764759)
(100.481 -1.22165 0.761176)
(100.48 -1.22421 0.757584)
(100.479 -1.22639 0.754086)
(100.479 -1.22836 0.750694)
(100.479 -1.23036 0.747343)
(100.481 -1.23264 0.743918)
(100.485 -1.23531 0.740343)
(100.494 -1.23801 0.736815)
(99.9949 0.0340746 0.00733695)
(99.977 0.0698022 0.0150579)
(99.9428 0.109547 0.0240262)
(99.8896 0.155334 0.03521)
(99.8117 0.208338 0.0497332)
(99.6998 0.268047 0.0690556)
(99.5398 0.330286 0.0951156)
(99.3111 0.382638 0.130407)
(98.9847 0.395695 0.178058)
(98.4971 0.197694 0.241782)
(98.2401 0.0152123 0.273881)
(97.899 -0.643789 0.34811)
(97.9663 -1.43939 0.428437)
(98.4402 -1.95215 0.504909)
(98.9312 -2.0989 0.564191)
(99.3164 -2.12781 0.603079)
(99.6266 -2.08743 0.627842)
(99.8607 -2.01284 0.645543)
(100.034 -1.93255 0.660388)
(100.165 -1.86012 0.673997)
(100.333 -1.88098 0.809485)
(100.377 -1.80097 0.821424)
(100.392 -1.74393 0.82916)
(100.401 -1.71079 0.833633)
(100.409 -1.69166 0.83584)
(100.41 -1.68288 0.835995)
(100.403 -1.68245 0.834095)
(100.39 -1.68796 0.830263)
(100.372 -1.6971 0.824772)
(100.351 -1.7081 0.817991)
(100.328 -1.71963 0.810351)
(100.303 -1.73073 0.802289)
(100.277 -1.7408 0.794213)
(100.252 -1.74952 0.786444)
(100.226 -1.75689 0.779183)
(100.201 -1.76315 0.772479)
(100.177 -1.76873 0.766217)
(100.155 -1.77414 0.760136)
(100.136 -1.77973 0.753919)
(100.117 -1.7848 0.747449)
(99.9959 0.0415621 0.00641271)
(99.9813 0.0856393 0.0131445)
(99.9532 0.135864 0.0209808)
(99.9083 0.195958 0.0308003)
(99.8402 0.269639 0.0436399)
(99.7377 0.360513 0.0608828)
(99.5813 0.471255 0.0844512)
(99.3387 0.600398 0.116923)
(98.9055 0.734361 0.161659)
(98.5635 0.736868 0.186783)
(97.759 0.346063 0.24991)
(96.9625 -0.714789 0.331407)
(97.057 -2.34914 0.428877)
(98.1668 -2.94843 0.52217)
(98.8721 -2.97348 0.586449)
(99.3337 -2.93348 0.614805)
(99.6932 -2.8142 0.626663)
(99.9324 -2.67778 0.637409)
(100.093 -2.55431 0.653381)
(100.202 -2.45418 0.674339)
(100.283 -2.3975 0.697274)
(100.247 -2.49722 0.844767)
(100.133 -2.47016 0.849227)
(100.019 -2.43561 0.845073)
(99.9097 -2.40331 0.835671)
(99.7982 -2.38085 0.82185)
(99.6833 -2.3681 0.80378)
(99.5679 -2.36251 0.782008)
(99.4543 -2.36183 0.757493)
(99.3443 -2.36437 0.731418)
(99.2394 -2.36866 0.705019)
(99.1405 -2.37348 0.679447)
(99.0485 -2.37787 0.655641)
(98.9634 -2.38123 0.634273)
(98.8851 -2.38329 0.615689)
(98.813 -2.3841 0.599898)
(98.7469 -2.38406 0.586539)
(98.6866 -2.38398 0.574924)
(98.6337 -2.38523 0.564114)
(98.5843 -2.39036 0.553299)
(99.9974 0.0466665 0.00530032)
(99.9877 0.096673 0.0108152)
(99.9687 0.154858 0.0171863)
(99.9377 0.226745 0.0251243)
(99.8892 0.319053 0.035444)
(99.8129 0.440889 0.0492184)
(99.6897 0.605574 0.0679155)
(99.4831 0.832898 0.0934818)
(99.0694 1.15344 0.128304)
(98.6619 1.31251 0.148656)
(97.7112 1.44994 0.175557)
(95.6123 0.676436 0.225749)
(94.4159 -3.45155 0.32602)
(98.2163 -4.7145 0.460864)
(98.7163 -3.88328 0.58801)
(99.2876 -3.83525 0.554322)
(99.683 -3.61216 0.469482)
(99.8304 -3.38517 0.410409)
(99.8366 -3.22213 0.412648)
(99.7512 -3.08408 0.478121)
(98.5972 -2.79778 0.642243)
(95.0889 -2.38119 0.457711)
(95.2086 -2.4169 0.448517)
(95.3211 -2.42699 0.439005)
(95.3983 -2.43437 0.429826)
(95.4486 -2.45061 0.420342)
(95.4855 -2.47587 0.409741)
(95.5178 -2.50719 0.397624)
(95.5504 -2.54154 0.384097)
(95.5861 -2.5761 0.369611)
(95.6264 -2.60836 0.354774)
(95.6714 -2.63636 0.340228)
(95.7207 -2.65887 0.32646)
(95.7729 -2.67541 0.313813)
(95.8269 -2.68616 0.30242)
(95.8814 -2.69178 0.292167)
(95.9354 -2.69333 0.282632)
(95.9881 -2.69219 0.27303)
(96.0387 -2.69027 0.262083)
(96.0975 -2.69099 0.247693)
(99.9991 0.0486611 0.00399696)
(99.9956 0.101003 0.0081182)
(99.9884 0.162847 0.0127797)
(99.9764 0.240945 0.0184324)
(99.9568 0.34413 0.0255363)
(99.9249 0.485696 0.0346262)
(99.8724 0.687208 0.0463149)
(99.7844 0.986508 0.0610881)
(99.6122 1.45573 0.0787661)
(99.3443 1.85171 0.088733)
(98.6236 2.7795 0.0971014)
(95.4732 5.74966 0.0982511)
(77.2423 -4.45152 0.119105)
(56.5451 -4.98635 1.15318)
(73.7413 -4.16259 0.552252)
(78.2545 -3.52506 0.29581)
(82.2448 -3.47859 -0.0702937)
(85.4528 -3.54865 -0.378637)
(87.7417 -3.6068 -0.603984)
(92.6299 -3.78648 -0.707216)
(95.9781 -3.33253 -0.731875)
(96.0579 -3.19637 -0.717185)
(96.1787 -3.09722 -0.689643)
(96.3006 -3.02703 -0.656279)
(96.4279 -2.97752 -0.620286)
(96.5646 -2.94369 -0.583543)
(96.7076 -2.92162 -0.54768)
(96.8516 -2.90769 -0.513985)
(96.9919 -2.8986 -0.483308)
(97.1252 -2.89165 -0.45613)
(97.2492 -2.88488 -0.432654)
(97.3629 -2.87699 -0.412887)
(97.4656 -2.86734 -0.396736)
(97.5578 -2.85581 -0.384054)
(97.64 -2.84257 -0.374717)
(97.7134 -2.82798 -0.368736)
(97.779 -2.81226 -0.366291)
(97.838 -2.79522 -0.367818)
(97.9035 -2.77533 -0.373766)
(100.001 0.0467086 0.00268267)
(100.004 0.0971624 0.005343)
(100.01 0.157246 0.0081955)
(100.019 0.233782 0.0113908)
(100.032 0.335792 0.01498)
(100.052 0.47663 0.0188811)
(100.085 0.677296 0.0227042)
(100.146 0.972918 0.0253506)
(100.286 1.4247 0.02412)
(100.333 1.83084 0.0219777)
(100.603 2.80674 0.00913735)
(102.403 5.32165 -0.0422549)
(110.992 4.01374 -0.211576)
(108.998 -6.56101 -0.355066)
(102.743 -6.72382 -0.429464)
(101.115 -4.89116 -0.474785)
(100.7 -3.90127 -0.489403)
(100.548 -3.38025 -0.49981)
(100.469 -3.08759 -0.515063)
(100.397 -2.91945 -0.53405)
(100.279 -2.70334 -0.626744)
(100.283 -2.28616 -0.769599)
(100.262 -2.18177 -0.76799)
(100.246 -2.1274 -0.760488)
(100.234 -2.10351 -0.751267)
(100.225 -2.09446 -0.741478)
(100.219 -2.09339 -0.73122)
(100.216 -2.09698 -0.720703)
(100.214 -2.10279 -0.71023)
(100.214 -2.10893 -0.700064)
(100.214 -2.11417 -0.69043)
(100.214 -2.11783 -0.681528)
(100.214 -2.11968 -0.673534)
(100.215 -2.11972 -0.666586)
(100.215 -2.11815 -0.660871)
(100.215 -2.11518 -0.656599)
(100.215 -2.11098 -0.654068)
(100.215 -2.10543 -0.653646)
(100.218 -2.09792 -0.655686)
(100.227 -2.08683 -0.659976)
(100.003 0.0408147 0.00138835)
(100.012 0.0851684 0.00269825)
(100.03 0.137942 0.00385363)
(100.059 0.20502 0.00472795)
(100.102 0.293796 0.00501571)
(100.167 0.414211 0.00411445)
(100.268 0.580145 0.000886794)
(100.43 0.810624 -0.00675847)
(100.74 1.12941 -0.0227425)
(100.963 1.36521 -0.033714)
(101.803 1.81423 -0.0720912)
(103.399 1.71405 -0.145842)
(105.158 -0.267505 -0.256288)
(104.701 -2.81601 -0.377721)
(102.931 -3.5311 -0.472979)
(101.736 -3.29831 -0.537662)
(101.131 -2.94093 -0.577636)
(100.814 -2.64526 -0.600792)
(100.632 -2.42744 -0.614417)
(100.509 -2.26843 -0.622713)
(100.418 -2.1418 -0.627885)
(100.314 -1.84659 -0.770366)
(100.277 -1.8158 -0.768781)
(100.251 -1.79588 -0.76481)
(100.233 -1.78404 -0.759596)
(100.221 -1.7762 -0.753711)
(100.212 -1.7702 -0.747477)
(100.205 -1.7652 -0.741179)
(100.201 -1.76056 -0.735052)
(100.198 -1.75567 -0.729247)
(100.196 -1.75004 -0.723863)
(100.196 -1.74346 -0.718951)
(100.197 -1.73584 -0.714552)
(100.198 -1.72727 -0.710688)
(100.201 -1.71784 -0.707446)
(100.204 -1.70771 -0.70496)
(100.208 -1.69696 -0.70345)
(100.213 -1.68558 -0.703217)
(100.221 -1.67361 -0.704612)
(100.238 -1.66172 -0.707935)
(100.004 0.0316852 0.000319282)
(100.019 0.0660543 0.000475433)
(100.046 0.106842 0.0002046)
(100.09 0.158325 -0.000838067)
(100.155 0.225353 -0.0032269)
(100.251 0.313657 -0.00790138)
(100.393 0.429324 -0.0163903)
(100.605 0.576601 -0.0311774)
(100.931 0.751508 -0.0562844)
(101.405 0.833331 -0.0973056)
(102.03 0.737723 -0.159948)
(102.692 0.221448 -0.248514)
(103.04 -0.738673 -0.35566)
(102.796 -1.54645 -0.469119)
(102.169 -1.8399 -0.563749)
(101.561 -1.83647 -0.629802)
(101.135 -1.74645 -0.671076)
(100.863 -1.64107 -0.695815)
(100.682 -1.54335 -0.710803)
(100.555 -1.4588 -0.719798)
(100.466 -1.387 -0.724835)
(100.405 -1.3238 -0.727083)
(100.36 -1.27483 -0.728647)
(100.327 -1.23655 -0.729809)
(100.301 -1.20763 -0.730431)
(100.281 -1.18629 -0.730639)
(100.264 -1.17048 -0.730628)
(100.251 -1.15854 -0.730479)
(100.24 -1.14922 -0.73018)
(100.231 -1.14157 -0.729691)
(100.224 -1.13483 -0.728987)
(100.219 -1.12851 -0.728065)
(100.215 -1.12231 -0.726963)
(100.213 -1.11606 -0.72575)
(100.213 -1.10967 -0.724565)
(100.214 -1.10311 -0.723597)
(100.216 -1.09636 -0.723094)
(100.22 -1.08939 -0.723356)
(100.227 -1.0823 -0.724707)
(100.237 -1.07548 -0.727366)
(100.005 0.0199928 -0.000475742)
(100.023 0.0416448 -0.00115547)
(100.057 0.0673003 -0.00244298)
(100.111 0.0993579 -0.00481959)
(100.19 0.14042 -0.00905912)
(100.302 0.192971 -0.0162185)
(100.461 0.258398 -0.027919)
(100.682 0.334256 -0.0464885)
(100.982 0.407755 -0.0750974)
(101.371 0.44073 -0.117561)
(101.822 0.378259 -0.177499)
(102.24 0.147414 -0.256345)
(102.457 -0.261786 -0.34877)
(102.345 -0.676364 -0.442641)
(101.969 -0.906836 -0.524333)
(101.529 -0.958099 -0.585148)
(101.169 -0.925684 -0.625908)
(100.911 -0.87092 -0.652092)
(100.727 -0.81606 -0.668991)
(100.592 -0.767311 -0.679976)
(100.492 -0.727101 -0.68707)
(100.417 -0.697987 -0.691708)
(100.361 -0.67911 -0.695256)
(100.319 -0.667713 -0.698088)
(100.287 -0.661802 -0.700205)
(100.262 -0.659801 -0.701678)
(100.242 -0.66021 -0.702622)
(100.227 -0.661842 -0.703096)
(100.214 -0.663925 -0.703105)
(100.205 -0.665963 -0.702645)
(100.198 -0.667611 -0.701727)
(100.192 -0.668679 -0.700385)
(100.189 -0.669066 -0.698687)
(100.187 -0.668772 -0.696737)
(100.187 -0.667787 -0.694729)
(100.188 -0.666201 -0.692828)
(100.191 -0.664083 -0.69126)
(100.197 -0.661518 -0.690327)
(100.205 -0.658621 -0.690396)
(100.221 -0.655572 -0.691932)
(100.006 0.00682357 -0.000924494)
(100.025 0.0142295 -0.00201309)
(100.063 0.0229451 -0.00386605)
(100.121 0.0337659 -0.00687299)
(100.206 0.0475035 -0.012083)
(100.325 0.0648198 -0.020439)
(100.489 0.0857122 -0.0335743)
(100.708 0.108731 -0.0536567)
(100.99 0.128751 -0.083553)
(101.328 0.133682 -0.125855)
(101.689 0.104193 -0.182723)
(102.001 0.0205189 -0.254026)
(102.162 -0.113951 -0.335282)
(102.099 -0.252889 -0.417393)
(101.836 -0.339774 -0.490097)
(101.491 -0.365745 -0.546965)
(101.173 -0.359073 -0.587033)
(100.927 -0.343379 -0.613716)
(100.743 -0.327431 -0.631455)
(100.606 -0.313315 -0.643426)
(100.502 -0.301714 -0.651683)
(100.424 -0.29294 -0.65759)
(100.367 -0.286142 -0.662159)
(100.323 -0.280447 -0.665899)
(100.29 -0.275311 -0.669151)
(100.265 -0.270444 -0.671947)
(100.244 -0.265635 -0.674265)
(100.228 -0.260762 -0.676084)
(100.215 -0.255803 -0.677371)
(100.204 -0.250784 -0.678091)
(100.195 -0.245745 -0.67823)
(100.188 -0.240729 -0.677809)
(100.183 -0.235784 -0.676881)
(100.18 -0.230955 -0.67551)
(100.179 -0.226248 -0.6741)
(100.179 -0.221718 -0.672693)
(100.182 -0.217405 -0.67149)
(100.187 -0.213363 -0.670805)
(100.194 -0.209747 -0.671011)
(100.206 -0.207109 -0.672573)
(99.9943 0.00500359 0.0134785)
(99.9747 0.0101088 0.0277638)
(99.9384 0.0155014 0.0442231)
(99.8844 0.0212245 0.0644082)
(99.8114 0.0270295 0.0899814)
(99.7173 0.0321834 0.122889)
(99.6013 0.0351257 0.165189)
(99.4658 0.0330654 0.219126)
(99.319 0.0215859 0.286656)
(99.1789 -0.00520779 0.368528)
(99.0756 -0.052714 0.463511)
(99.046 -0.118358 0.567212)
(99.113 -0.184862 0.671744)
(99.2673 -0.234024 0.768344)
(99.468 -0.25703 0.849593)
(99.6709 -0.2632 0.913515)
(99.8519 -0.260368 0.961861)
(100.004 -0.252615 0.998045)
(100.128 -0.242707 1.02528)
(100.225 -0.233011 1.04612)
(100.3 -0.224598 1.06236)
(100.355 -0.217675 1.07571)
(100.396 -0.212372 1.08764)
(100.425 -0.209091 1.09887)
(100.448 -0.207643 1.10946)
(100.465 -0.207483 1.11923)
(100.48 -0.208194 1.12795)
(100.492 -0.209463 1.13557)
(100.502 -0.210991 1.14209)
(100.512 -0.212527 1.14747)
(100.52 -0.213897 1.15168)
(100.528 -0.215015 1.15475)
(100.536 -0.215842 1.15676)
(100.543 -0.216382 1.15781)
(100.55 -0.21667 1.15795)
(100.557 -0.21679 1.1572)
(100.564 -0.216843 1.1556)
(100.572 -0.216929 1.15314)
(100.581 -0.217175 1.14976)
(100.594 -0.217786 1.14524)
(99.9945 0.0148673 0.0131477)
(99.9753 0.0301394 0.0270801)
(99.9395 0.0464431 0.0431984)
(99.8858 0.0640359 0.0630603)
(99.8119 0.0823785 0.0883855)
(99.7144 0.0995624 0.121265)
(99.5907 0.111244 0.164082)
(99.44 0.109202 0.219545)
(99.2677 0.0796986 0.290283)
(99.0904 0.00323638 0.378019)
(98.9464 -0.136264 0.482037)