/*--------------------------------*- C++ -*----------------------------------*\
| =========                 |                                                 |
| \\      /  F ield         | OpenFOAM: The Open Source CFD Toolbox           |
|  \\    /   O peration     | Version:  2306                                  |
|   \\  /    A nd           | Website:  www.openfoam.com                      |
|    \\/     M anipulation  |                                                 |
\*---------------------------------------------------------------------------*/
FoamFile
{
    version     2.0;
    format      ascii;
    arch        "LSB;label=32;scalar=64";
    class       volVectorField;
    location    "1.95";
    object      Force;
}
// * * * * * * * * * * * * * * * * * * * * * * * * * * * * * * * * * * * * * //

dimensions      [1 1 -2 0 0 0 0];

internalField   uniform (0 0 0);

boundaryField
{
    walls
    {
        type            calculated;
        value           uniform (0 0 0);
    }
    inlet
    {
        type            calculated;
        value           uniform (0 0 0);
    }
    outlet
    {
        type            calculated;
        value           uniform (0 0 0);
    }
    NASA
    {
        type            calculated;
        value           nonuniform List<vector> 
14179
(
(-0.0142194 -0.130813 5.08601e-06)
(-0.0126561 -0.104671 3.48284e-06)
(-0.0653892 -0.529006 0.000499841)
(-0.100154 -0.80553 0.00187786)
(-0.0642054 -0.519924 0.000256666)
(-0.10927 -0.87871 0.00210151)
(0.220319 0.956755 -0.000233277)
(0.0910287 0.456984 -4.33017e-05)
(0.677661 3.32347 0.00425126)
(0.097041 0.487198 -4.75336e-05)
(0.00104615 0.00200817 -1.15858e-06)
(-0.0178095 -0.145677 0.000358705)
(0.131065 0.65454 -0.00140547)
(-0.0354492 -0.322348 0.000913006)
(0.0621302 0.310042 -0.000642608)
(1.3771 0.928934 0.00281731)
(1.39165 0.922247 -0.000289212)
(0.0238834 0.134248 -3.7477e-05)
(0.158377 0.939987 -9.72118e-05)
(1.26426 0.837989 -0.00169942)
(-0.0167875 -0.234965 -1.03934e-05)
(-0.020837 -0.193818 -0.000126866)
(-0.0192052 -0.266725 -0.000239067)
(-0.00833256 -0.0607521 2.08062e-06)
(-0.0128274 -0.106146 1.52169e-05)
(-0.00900822 -0.0656782 1.37208e-05)
(-0.0128832 -0.106103 0.000299406)
(-0.0151305 -0.108421 0.000315935)
(-0.0132228 -0.120767 0.000342019)
(-0.0154591 -0.212173 0.0036085)
(0.0473093 0.206609 2.31087e-05)
(0.0533852 0.251739 3.72124e-06)
(0.0574052 0.270696 -7.43111e-05)
(0.0466638 0.203276 -1.91797e-05)
(0.0617971 0.226682 1.39688e-06)
(0.0623545 0.228626 5.1929e-06)
(0.0313269 0.113657 8.19969e-07)
(0.0325902 0.118187 3.6554e-06)
(-0.00220273 -0.0104731 0.000144297)
(-0.0129327 -0.0629317 0.000639733)
(0.171292 0.625549 -0.000982228)
(0.100318 0.361675 -0.000194331)
(0.0976291 0.49002 -4.61676e-05)
(-0.00567183 -0.0399482 2.82118e-06)
(-0.00517986 -0.0364752 -3.17067e-06)
(0.155561 0.781337 -6.93778e-05)
(-0.00984655 -0.0681208 0.000231851)
(0.0975029 0.486745 -0.000507422)
(0.0906782 0.453091 -0.000592305)
(0.108534 0.443446 -0.000342649)
(0.0848824 0.315545 -1.85087e-05)
(0.084557 0.314327 -3.87135e-05)
(-0.0552836 1.34974 -9.81513e-05)
(1.3869 0.922063 -0.00073107)
(-0.0468323 1.15062 7.20265e-05)
(-0.00234036 1.12285 -6.36627e-05)
(0.0712471 1.07826 3.63714e-05)
(0.0713299 1.07791 -0.000180473)
(-0.00211255 0.94019 -1.23857e-05)
(0.092304 0.362771 -2.06263e-05)
(0.157716 0.935343 -0.000112921)
(0.00736086 0.02675 4.53996e-05)
(-0.0228183 0.566754 -0.000657036)
(0.914085 0.623749 0.0762984)
(-0.000734487 0.533054 -0.00091179)
(0.0269378 0.409089 -0.000579644)
(0.127642 0.747041 0.00707836)
(-0.0143635 -0.143757 7.59317e-06)
(-0.0141629 -0.130375 9.22329e-06)
(-0.0984693 -0.792097 0.00184273)
(-0.0111186 -0.0882306 3.61302e-06)
(-0.0126337 -0.104493 7.21112e-06)
(1.31197 0.868599 -0.00240477)
(1.26351 0.836781 -0.00210447)
(0.347203 2.05847 -0.00535992)
(0.261741 1.54627 -0.00359362)
(-0.11074 -0.891662 0.000653544)
(-0.0567331 -0.353055 0.000878041)
(-0.055885 -0.349985 0.000876646)
(-0.0430412 -0.252451 0.000650682)
(0.157703 0.680332 -0.00169974)
(0.177301 0.766537 -0.00186826)
(0.762726 1.30954 -5.49077e-05)
(0.76329 1.30852 -0.00032841)
(0.0902181 0.452801 -4.13832e-05)
(0.0838958 0.403082 -2.72571e-05)
(6.03132e-05 -0.00110952 -1.05405e-06)
(0.00181339 0.0095416 -1.84752e-07)
(0.00185137 0.00975991 -2.09954e-06)
(6.75551e-05 -0.00105817 1.42829e-07)
(0.0969183 0.486558 -3.00969e-05)
(0.0934091 0.481831 -3.5718e-05)
(-0.0200339 -0.163727 0.000422265)
(-0.01351 -0.0967881 0.000268322)
(-0.020376 -0.145489 0.000373658)
(-0.0123434 -0.0850979 0.000251848)
(-0.0181665 -0.124581 0.00027694)
(0.0859411 0.428806 -0.00107607)
(-0.019987 -0.181828 0.00045234)
(-0.0245457 -0.33741 0.00107888)
(-0.0207277 -0.291148 0.000139004)
(0.0806179 0.402617 -0.000981481)
(1.37425 0.922922 -0.00268819)
(0.0956866 0.564153 -5.37202e-05)
(0.103785 0.580565 -2.23118e-05)
(0.104706 0.585411 -5.06234e-05)
(0.179878 1.25249 -0.000126991)
(0.103904 0.616353 -5.19292e-05)
(0.157827 0.936401 -7.98891e-05)
(0.0174413 0.0164566 1.55729e-05)
(0.338503 -0.12474 0.00339652)
(0.357088 -0.141571 0.00168228)
(0.0114879 0.0110144 -3.04605e-05)
(-0.0070315 -0.03009 0.000143787)
(0.021016 0.0774507 -0.000133767)
(0.0018391 0.00615387 5.40259e-05)
(0.0210237 0.0845575 -5.13246e-05)
(-0.00978839 -0.0436546 0.000123802)
(-0.00217534 -0.0119548 0.000108708)
(0.00388877 0.0161375 1.08587e-05)
(-0.0183072 -0.0885069 0.000219167)
(-0.00106567 0.730515 -0.00159343)
(0.0407381 0.608455 -0.00139432)
(-0.00155598 0.979342 -0.00219071)
(0.0317402 0.48051 -0.00141954)
(-0.0346191 0.8655 -0.00209007)
(1.09233 0.734792 -0.00180573)
(-0.0469149 1.16052 -0.00256851)
(0.109883 0.650248 -0.00251812)
(0.157402 0.616366 -0.00171915)
(0.118099 0.461835 -0.00104558)
(0.109107 0.398104 -0.000879496)
(0.154621 0.564889 -0.00126057)
(0.0636605 0.229684 -0.000505149)
(0.0869636 0.314297 -0.000770131)
(-0.012965 -0.146115 -4.98236e-07)
(-0.016674 -0.233063 1.21512e-05)
(-0.010168 -0.078382 3.4118e-06)
(-0.00818477 -0.0596792 3.32102e-06)
(0.000433192 0.000878522 0.529211)
(-0.0129364 -0.101776 0.000292216)
(0.000405342 0.000840257 0.503162)
(-0.0143885 -0.109621 0.000323162)
(0.00070313 0.00109949 0.572876)
(-0.0129378 -0.129161 0.00043204)
(0.000936864 0.00154558 0.57418)
(-0.0120387 -0.138634 0.00124533)
(0.0531746 0.250735 -2.71029e-05)
(0.0396016 0.180119 -7.96487e-06)
(0.0399198 0.181587 -1.98407e-05)
(0.0468897 0.204222 -1.57755e-05)
(0.0461794 0.203417 -1.02117e-05)
(0.0464203 0.20449 -2.02924e-05)
(0.06174 0.226414 2.26929e-06)
(0.0244389 0.12157 -1.29539e-05)
(0.0218985 0.111127 -1.16773e-05)
(0.0318616 0.115571 3.98672e-06)
(0.0272134 0.0957427 -2.21606e-07)
(-0.006591 -0.030142 0.000235021)
(-0.00555218 -0.0264243 0.000261413)
(0.000334154 0.000673988 0.320447)
(0.000337412 0.000641188 0.313826)
(0.000328701 0.000626017 0.309433)
(0.000301616 0.00064209 0.356447)
(0.0949894 0.323681 7.56803e-05)
(0.161812 0.565795 0.00345634)
(-2.5489e-05 0.000704045 0.337384)
(0.00026175 0.00022119 0.306601)
(0.000121092 0.000235941 0.108148)
(0.0829065 0.291043 -0.000132782)
(0.28536 0.662918 -4.26075e-06)
(0.16831 0.593378 5.91336e-05)
(0.166635 0.58751 -3.23695e-05)
(0.0822898 0.384335 -1.91353e-05)
(0.0826722 0.38612 -3.11329e-05)
(0.133067 0.635659 -3.6285e-05)
(0.0822933 0.366438 -2.59785e-05)
(0.0863146 0.391785 -1.56633e-05)
(0.0872266 0.395817 -2.97166e-05)
(0.0823683 0.366914 -9.69627e-06)
(-0.0042493 -0.0301608 6.99839e-07)
(-0.00559974 -0.0394451 1.101e-06)
(0.150796 0.798932 -3.64169e-05)
(0.262712 0.453082 0.0106821)
(0.000804405 0.00319568 0.856515)
(0.000348271 0.00155134 0.409442)
(0.0481259 0.139977 3.4835e-06)
(-0.0118579 -0.0739545 0.000299128)
(-0.0118434 -0.0747521 0.000443584)
(0.00080343 0.00168782 0.672663)
(0.000264894 0.00025622 0.309813)
(0.0965241 0.495428 0.000468144)
(0.000429439 0.000214688 0.37335)
(0.140372 0.737786 0.00460441)
(0.000468289 0.00083834 0.345601)
(0.000323158 0.00066153 0.32709)
(-0.000413185 0.000349341 0.349699)
(6.93948e-05 0.000339794 0.112501)
(0.0808606 0.3863 -0.0005355)
(0.103576 0.481189 0.000383081)
(0.000403629 0.000193428 0.205649)
(9.5336e-05 0.000438473 0.107879)
(0.170427 0.716236 0.001141)
(0.0849128 0.31565 -2.22696e-05)
(0.0809246 0.30979 -2.34629e-05)
(0.0966689 0.394092 -3.55009e-05)
(0.0677966 0.273069 -9.96191e-06)
(-0.818022 2.61521 -0.0200729)
(-0.0488031 1.19535 -3.64423e-05)
(-0.165692 1.54869 0.000673833)
(0.0699795 1.05713 -9.54208e-05)
(0.0511085 1.09403 -5.32364e-05)
(-0.00211297 0.961283 -2.82802e-05)
(0.026805 1.01385 -3.67946e-05)
(0.114849 1.26124 -7.60678e-05)
(0.147328 1.90313 -8.75002e-05)
(0.14396 1.85922 -0.000113993)
(0.116689 1.28186 -7.90428e-05)
(0.130074 1.32935 -0.000100979)
(0.133051 1.23844 -4.40867e-06)
(0.134699 1.2541 -0.000123879)
(0.129774 1.32588 -1.05024e-05)
(0.0673021 0.278899 -1.07755e-05)
(0.0603179 0.239366 -7.48304e-06)
(0.0919805 0.361448 -3.57042e-06)
(0.112153 0.759812 -0.000101391)
(0.11231 0.7074 -6.07289e-05)
(-0.000478964 0.000273398 0.562298)
(0.00072074 0.00254505 0.88567)
(0.000970061 0.00297017 0.000134974)
(0.000198734 0.00290673 0.732898)
(0.00193836 0.00654741 0.000127031)
(0.000347012 0.0100042 0.273113)
(-0.0603074 0.578717 -0.00123103)
(0.00726332 -0.00256747 1.74108)
(0.000294457 0.000563027 0.302912)
(0.0141331 0.51653 -0.000941294)
(0.000683038 0.000115512 0.244121)
(0.0231763 0.485075 -0.000754476)
(0.0612681 0.527132 -0.000940243)
(0.0610324 0.517596 -0.000898761)
(0.000318276 0.000461374 0.243426)
(0.000344714 0.000504196 0.267752)
(0.0574159 0.529723 -0.000840806)
(0.0521605 0.526206 -0.000548029)
(0.0471652 0.51625 0.000775237)
(2.11217e-05 -0.000584229 0.222205)
(-0.0190934 -0.104812 0.00119512)
(5.81928e-05 0.000820555 0.499001)
(0.0918793 0.510936 -0.000502454)
(0.000327988 0.000639528 0.318581)
(0.000331089 0.0006437 0.320099)
(0.479637 -0.191079 -0.00385089)
(0.228807 0.216346 0.00218713)
(0.000178252 0.000122465 0.0812027)
(-0.0525294 -0.516726 0.000829267)
(-0.0688228 -0.556095 0.000899541)
(-0.0553268 -0.543632 0.00109021)
(-0.0691638 -0.558802 0.000921986)
(-0.0747308 -0.602992 0.00121838)
(-0.0581576 -0.570953 0.00126254)
(-0.0816466 -0.657998 0.00146606)
(0.180061 0.779306 -0.0019053)
(0.450512 2.20601 -0.00519385)
(0.183508 0.794644 -0.00193481)
(0.429886 2.10444 -0.00497549)
(-0.0643354 -0.520847 0.000289545)
(-0.0422773 -0.263665 0.000635133)
(-0.104505 -0.840218 0.00197045)
(-0.0480848 -0.29943 0.000724869)
(1.39214 0.922585 -0.000622252)
(1.39303 0.923147 -0.000300483)
(0.235439 1.02234 -0.000310128)
(0.717475 3.52052 -0.00165958)
(0.616846 3.02652 -0.000914562)
(0.241053 1.04654 -0.000495907)
(0.40931 2.42655 -0.000766557)
(0.406836 2.41162 -0.00123063)
(0.000534346 -2.84457e-05 1.21635e-06)
(0.00103407 0.00244232 -6.17749e-07)
(0.0237913 0.134815 -6.96065e-05)
(0.0242706 0.137027 -4.63088e-05)
(0.0476609 0.206725 -0.000370251)
(0.0348337 0.158094 -0.000280986)
(0.0577445 0.251255 -0.00049023)
(0.0266643 0.120082 -0.000179255)
(-0.108447 -0.872694 0.0020926)
(-0.0691683 -0.502642 0.00120679)
(0.0158059 0.0737768 -5.09643e-05)
(-0.0117391 -0.0649028 0.000214731)
(0.0642236 0.23419 -0.000586263)
(0.0722581 0.263454 -0.000635947)
(0.0349381 0.125942 -0.000317169)
(0.0404178 0.145688 -0.000352173)
(0.298673 1.35146 -0.000362069)
(0.180859 0.784735 -4.6475e-05)
(0.332963 1.57463 -0.000462282)
(0.143415 0.719807 -0.000101928)
(-0.0183712 -0.154728 0.0001716)
(-0.0413871 -0.307126 0.000316703)
(-0.00673755 -0.049283 -1.18742e-05)
(0.00183275 0.00616176 -3.75084e-06)
(-0.0170798 -0.117452 3.10379e-05)
(-0.0226495 -0.159077 7.94967e-05)
(0.0975041 0.398694 0.000137924)
(0.0843432 0.313556 -8.62377e-05)
(0.084463 0.313986 -5.33111e-05)
(0.109052 0.44742 -0.000708765)
(0.166638 0.731997 -0.000206277)
(0.143195 0.659947 -4.94091e-05)
(0.173978 0.764814 -0.000204795)
(0.183418 0.855443 -5.92216e-05)
(-0.00257273 1.23953 -6.63095e-05)
(0.071434 1.07622 -0.000296365)
(-0.00311511 1.47839 -0.000341085)
(0.0726166 1.09698 -0.000224949)
(-0.0599465 1.46454 -0.000109311)
(1.38991 0.922384 -0.00040133)
(-0.0688861 1.68343 -0.000390002)
(0.48456 4.15548 -0.00196985)
(0.0967936 0.38035 -1.57212e-05)
(0.0924957 0.363405 -8.51833e-05)
(0.0721101 0.264286 -2.8256e-06)
(0.0636294 0.233307 2.22593e-06)
(0.0580191 0.304207 -0.000119217)
(0.186433 0.920333 -0.00113914)
(0.0230499 0.128701 -7.25945e-05)
(0.0486004 0.260893 -7.16242e-05)
(0.742371 4.64534 0.00215105)
(0.351652 2.34954 0.000405979)
(0.0409548 0.148451 7.02212e-06)
(0.0334236 0.121218 4.86941e-06)
(1.24579 0.827655 -0.000646517)
(0.0901059 0.623866 -0.00149654)
(0.252533 0.236877 -0.000483618)
(0.496696 -0.205947 0.000152831)
(0.239308 0.225171 -0.000540717)
(0.517618 -0.214989 -0.000106261)
(0.0620657 0.227595 1.4764e-06)
(0.028498 0.100208 4.60046e-06)
(0.0322877 0.11711 4.85083e-06)
(0.285422 0.663067 -2.13014e-05)
(0.275901 0.809896 -7.69407e-05)
(0.000660493 0.00193652 0.724187)
(0.000255602 0.000876569 0.360971)
(0.00042574 0.000224142 0.382694)
(-0.182342 1.69025 -0.00016336)
(-0.0513045 1.25404 -3.06011e-05)
(1.38285 0.922738 -0.00142742)
(0.0217438 0.0205273 1.85118e-05)
(0.358404 -0.1473 0.00013506)
(0.360229 -0.146452 0.00057982)
(0.0231888 0.0218656 1.33605e-05)
(0.000379189 0.000765494 0.540775)
(0.000304634 0.000383855 0.378621)
(0.000292524 0.000534441 0.340179)
(0.000482431 0.000859255 0.363084)
(-0.0892252 -0.718399 0.00164615)
(1.3475 0.892211 -0.00248256)
(1.3327 0.882385 -0.00245094)
(1.30833 0.86621 -0.00239926)
(1.3313 0.88145 -0.00244833)
(0.399754 1.95585 -0.00463922)
(0.176811 0.76462 -0.0018704)
(0.178752 0.773506 -0.00189183)
(0.422118 2.06623 -0.0048936)
(0.271142 1.60209 -0.00375784)
(0.29012 1.71455 -0.00398416)
(-0.0245175 -0.144895 0.000364068)
(-0.0313844 -0.18462 0.000462869)
(-0.0555863 -0.345773 0.000849722)
(-0.0501386 -0.312079 0.000758375)
(-0.0411355 -0.241192 0.000612702)
(-0.0339463 -0.199442 0.000501327)
(0.253946 2.16044 -0.00495082)
(0.240802 2.04792 -0.00480028)
(0.0242268 0.0893959 -0.000165627)
(0.0226092 0.0912822 -0.000195548)
(0.0340905 0.138547 -7.47849e-05)
(0.0322299 0.119169 -0.000246681)
(0.00122724 0.00418944 6.16016e-05)
(0.0248939 0.106195 -8.95244e-05)
(0.0341756 0.147396 -0.000222608)
(0.0196941 0.087228 -6.06202e-05)
(0.0401633 0.148687 -0.000324039)
(0.04409 0.17973 -0.000141523)
(0.0344883 0.127572 -0.000269138)
(0.0426246 0.636357 -0.00144512)
(-0.00164069 1.02278 -0.00228749)
(-0.00183323 1.12777 -0.00252008)
(0.0469803 0.701646 -0.0015979)
(-0.0543183 1.34245 -0.00297795)
(1.29866 0.859769 -0.0023716)
(-0.0568135 1.40375 -0.003117)
(-0.0487515 1.20565 -0.0026721)
(-0.0531107 1.31279 -0.00291197)
(1.29514 0.857428 -0.00236562)
(-0.00188766 1.15635 -0.00258367)
(0.0513255 0.767661 -0.00174088)
(-0.00199513 1.21282 -0.00271183)
(0.0483083 0.721967 -0.00161549)
(0.22731 1.34297 -0.00303498)
(0.412123 2.56471 -0.00804396)
(0.238239 1.58678 -0.00371019)
(0.248037 1.4647 -0.00348779)
(0.40643 2.53471 -0.00586315)
(0.378672 2.36064 -0.0055877)
(0.196302 1.30534 -0.00405414)
(-0.0810862 -0.595275 0.0010227)
(-0.101611 -0.817961 0.00198143)
(-0.0665946 -0.442108 0.0010769)
(-0.0569043 -0.354591 0.000903225)
(-0.0800441 -0.536829 0.00121708)
(-0.0532156 -0.332445 0.000870116)
(-0.0246684 -0.137215 0.000385305)
(-0.0449075 -0.263807 0.000706363)
(0.00245087 0.00571051 0.00021259)
(-0.0475747 -0.280767 0.000743261)
(0.23247 1.04464 -0.0026486)
(0.180691 0.780742 -0.00188003)
(0.23941 1.1282 -0.00269822)
(0.178753 0.772615 -0.00187058)
(0.226778 1.02245 -0.00246523)
(0.242518 1.14179 -0.00309433)
(0.369563 1.80621 -0.00443228)
(0.106059 0.414672 -0.000952543)
(0.0900269 0.35191 -0.000840678)
(0.0960573 0.350391 -0.000792587)
(0.0759892 0.277065 -0.000658896)
(0.0874623 0.341916 -0.000830489)
(0.081502 0.318683 -0.000790029)
(0.0559142 0.201672 -0.000453273)
(0.042979 0.154924 -0.000368339)
(0.120225 0.278667 -0.000599458)
(0.101653 0.23551 -0.000470436)
(-0.0206776 -0.156709 0.000411897)
(-0.0182222 -0.130323 0.000349355)
(0.0814899 0.416541 -0.00128303)
(0.0861666 0.43012 -0.000999525)
(0.124457 0.657045 -0.00217708)
(-0.0191541 -0.189308 0.000403666)
(-0.0197772 -0.180322 0.000458488)
(-0.0170708 -0.187858 0.000156722)
(-0.0210483 -0.291961 0.000659403)
(0.0774176 0.370561 -0.00101802)
(0.0820283 0.409514 -0.000940595)
(-0.00468316 -0.019675 9.62379e-05)
(0.00526442 0.0201353 6.47715e-05)
(-0.00137987 -0.00607119 8.1169e-05)
(0.0120207 0.0439904 -3.10634e-05)
(0.0176058 0.64621 -0.00143361)
(-0.00128248 0.844447 -0.00190012)
(0.0268175 0.565668 -0.00133112)
(0.0360372 0.539393 -0.00130916)
(-0.104538 0.994126 -0.00361534)
(-0.0409249 1.01514 -0.00230735)
(1.20986 0.807992 0.000876618)
(-0.452675 1.47333 -0.00291312)
(-0.0447862 1.1088 -0.00247326)
(-0.139721 1.3006 -0.00281938)
(-0.0121259 -0.0633368 0.000210229)
(-0.0090362 -0.046455 0.00016457)
(-0.0108264 -0.0554185 0.00019115)
(-0.0103298 -0.0541524 0.000184465)
(-0.0249349 -0.136859 0.000254968)
(0.000733499 0.00113683 0.385522)
(0.0584453 0.393236 -0.000931201)
(0.092078 0.63765 -0.00162129)
(0.0604596 0.406509 -0.00102494)
(0.127045 0.46371 -0.00100556)
(0.154822 0.565389 -0.00123521)
(0.0734058 0.264932 -0.000570727)
(0.0624513 0.218486 -0.000479553)
(0.0821097 0.287799 -0.000812048)
(0.0899205 0.324742 -0.000720398)
(0.452107 -0.188932 -0.00265548)
(0.215771 0.198152 0.000452595)
(0.263698 0.245279 -0.000300396)
(0.523838 -0.218539 -0.000935652)
(0.222585 0.964991 -0.00227792)
(0.575291 2.81968 -0.00643088)
(0.225324 0.977049 -0.00222786)
(0.553447 2.71229 -0.00625698)
(-0.064904 -0.52522 0.000412509)
(-0.000437245 -0.00596937 7.43919e-06)
(-3.79456e-05 -0.00350683 4.34767e-06)
(0.238186 1.03373 -0.000807144)
(0.653773 3.20668 -0.00290009)
(0.227748 0.988242 -0.000880842)
(-0.0609746 -0.443309 0.00103928)
(0.17927 0.788411 -0.000373134)
(0.146008 0.673952 -0.000362649)
(0.179552 0.789678 -0.000429245)
(0.145866 0.673244 -0.000320265)
(0.0743717 0.272647 -0.000131612)
(0.0733772 0.268868 -0.000102354)
(-0.0321389 -0.235963 0.000119272)
(0.1657 0.820292 -0.0004376)
(0.0654663 0.344388 -0.000182115)
(0.0386912 0.140275 -6.92448e-05)
(0.0411775 0.149213 -6.20619e-05)
(1.39171 0.92239 -0.000273631)
(0.0305334 0.0287076 6.88433e-06)
(0.348083 -0.144446 3.0162e-06)
(0.0302007 0.0283819 2.80901e-06)
(0.348308 -0.144479 -9.43722e-07)
(-0.0206696 -0.130597 0.00030401)
(-0.0232065 -0.146221 0.000343518)
(-0.040174 -0.250712 0.000603014)
(-0.0942445 -0.758412 0.0017536)
(-0.0350447 -0.219125 0.000524389)
(0.18537 0.802868 -0.00195325)
(0.19686 0.853392 -0.00205921)
(0.100801 0.441152 -0.000975779)
(0.0756063 0.347036 -0.000764284)
(0.104397 0.457008 -0.0010148)
(0.0722094 0.331305 -0.000724892)
(0.0418221 0.190576 -0.000369705)
(0.0663306 0.289153 -0.000588627)
(0.0732199 0.319543 -0.000668126)
(0.0476973 0.217828 -0.00044201)
(0.0581547 0.212738 -0.000563003)
(0.0565478 0.206722 -0.000546583)
(0.0624182 0.227633 -0.000575312)
(0.0584998 0.213439 -0.000550988)
(0.013425 0.0685248 -0.000128696)
(0.0668639 0.327991 -0.000703428)
(-0.0686063 -0.498426 0.00119065)
(0.0233529 0.111555 -0.000157615)
(-0.00794133 -0.0446263 0.000156957)
(0.0304573 0.146997 -0.000252547)
(0.0315418 0.114114 -0.000307888)
(0.0301736 0.109078 -0.000294136)
(0.0337095 0.121525 -0.00030957)
(0.0310829 0.112108 -0.000293218)
(1.31082 0.867829 -0.00239978)
(1.27738 0.845703 -0.00226081)
(0.130574 0.123001 -0.00033074)
(0.361597 -0.150134 0.000216329)
(0.371764 -0.154355 0.000224125)
(0.118317 0.111443 -0.000303491)
(0.474378 -0.196718 0.000233961)
(0.222745 0.209791 -0.00052946)
(0.208471 0.196414 -0.000502646)
(0.45465 -0.188643 0.000239326)
(0.000111479 -0.0106298 1.0933e-05)
(-4.30911e-06 -0.0191152 2.59287e-05)
(-0.0519033 -0.510785 0.000689158)
(-4.61517e-05 -0.0221627 3.64671e-05)
(-0.000138677 -0.0290199 3.91816e-05)
(-0.0673926 -0.544803 0.000741919)
(-0.0540127 -0.530976 0.000986353)
(-0.000156847 -0.0301589 6.27268e-05)
(-8.81396e-05 -0.025181 4.89705e-05)
(-0.0714104 -0.576621 0.00106603)
(-0.0719027 -0.580535 0.00108676)
(3.54639e-05 -0.0159003 4.05101e-05)
(-0.0570224 -0.559991 0.00119838)
(-0.000136935 -0.0286126 6.49269e-05)
(-0.0786055 -0.633799 0.00136644)
(1.36945 0.906854 -0.00248385)
(1.36632 0.90476 -0.00249513)
(1.36252 0.902218 -0.00250216)
(1.36799 0.905865 -0.00249987)
(0.210933 0.914614 -0.00217039)
(0.526545 2.58058 -0.00600021)
(0.544916 2.67052 -0.00616806)
(0.189169 0.82034 -0.00195046)
(0.180867 0.782924 -0.00191113)
(0.238162 1.07474 -0.00258722)
(0.269024 1.2691 -0.00301054)
(0.443996 2.17393 -0.00512467)
(0.18232 0.789355 -0.00192398)
(0.245442 1.10801 -0.0026558)
(0.258386 1.21856 -0.00290314)
(0.436463 2.13684 -0.00505131)
(1.3878 0.919627 -0.00118335)
(1.38551 0.918154 -0.000954612)
(1.39044 0.921449 -0.000667886)
(1.38693 0.919102 -0.000920024)
(0.399718 2.36964 -0.00137845)
(0.443774 2.62973 -0.00198558)
(0.000409255 -0.000766603 1.62453e-06)
(-0.0647122 -0.523723 0.000381035)
(0.000134133 -0.00244648 3.29999e-06)
(0.0228359 0.129291 -0.00012434)
(0.0232465 0.131683 -0.000105885)
(0.0236692 0.134136 -7.72193e-05)
(0.0234336 0.132772 -9.93341e-05)
(0.233142 1.01215 -0.000540679)
(0.246209 1.06856 -0.000771672)
(0.656217 3.21922 -0.00244552)
(-0.0553101 -0.367519 0.000870801)
(-0.044116 -0.274989 0.000663218)
(-0.0645807 -0.469299 0.0011069)
(-0.0461723 -0.287651 0.000695079)
(-0.0600948 -0.398997 0.000951318)
(0.423544 3.62517 -0.00178026)
(0.43011 3.68078 -0.00148756)
(0.0843389 0.31354 -9.87313e-05)
(0.109154 0.447868 0.000430392)
(0.10929 0.448438 -0.00076782)
(0.084287 0.313355 -0.000132161)
(0.142306 0.656147 -0.000263717)
(0.177759 0.781614 -0.000263849)
(0.178834 0.786445 -0.000320798)
(0.145321 0.670567 -0.000277468)
(0.109285 0.448416 0.000366969)
(0.0842024 0.313048 -0.000176417)
(0.109259 0.448309 -0.000829973)
(0.0842635 0.313271 -0.000144694)
(0.070498 1.06283 -0.00030211)
(-0.00318726 1.50959 -0.000410386)
(-0.00328115 1.54392 -0.000613725)
(0.0684537 1.03225 -0.000421165)
(-0.0717912 1.75336 -0.000752208)
(1.39276 0.92299 -0.000496259)
(-0.0692439 1.69135 -0.000914207)
(-0.0702522 1.71658 -0.000466667)
(-0.0718656 1.75529 -0.000684387)
(1.39295 0.923112 -0.000440029)
(-0.00327985 1.54136 -0.000666396)
(0.0719667 1.08661 -0.000570844)
(-0.00312622 1.46892 -0.000813185)
(0.0684479 1.0322 -0.000456523)
(0.321285 1.45392 -0.000418041)
(0.240547 1.04436 -0.000372426)
(0.690359 3.38733 -0.00130756)
(0.417711 1.97526 -0.000921901)
(0.351777 1.6637 -0.000447019)
(0.651859 3.19832 -0.00114076)
(0.241299 1.04761 -0.000437807)
(0.356332 1.61227 -0.000743634)
(0.0863901 0.339449 -0.000100958)
(0.0754946 0.296535 -0.000121524)
(0.0729857 0.267517 -1.06352e-05)
(0.0726425 0.266216 -9.13313e-05)
(0.0734928 0.288659 -0.000132973)
(0.653201 4.08612 -0.00163357)
(0.426958 2.53083 -0.000967232)
(0.663522 4.15185 -0.00162827)
(0.390524 2.61153 -0.00125168)
(0.404452 2.70408 -0.00106597)
(0.427816 2.53609 -0.00107966)
(-0.0302622 -0.222904 7.72888e-05)
(-0.0184689 -0.125359 6.50281e-05)
(0.000665887 0.000700627 5.45514e-07)
(-0.0176634 -0.120675 4.28245e-05)
(0.000729153 0.000908431 5.847e-07)
(0.0647304 0.339984 -0.00011279)
(0.163277 0.807439 -0.000269199)
(0.165643 0.819687 -0.000332707)
(0.0498085 0.268493 -0.000140749)
(0.0238889 0.135309 -6.18661e-05)
(0.0498335 0.268113 -9.14171e-05)
(0.0239416 0.135447 -5.31545e-05)
(0.0438053 0.158811 3.32061e-06)
(0.0431021 0.156228 -6.15048e-05)
(0.0664398 0.242254 -0.000600415)
(0.0689274 0.251308 -0.000615484)
(0.0323784 0.113161 -0.00028598)
(0.0364475 0.131376 -0.000326901)
(0.0383613 0.134074 -0.000323337)
(0.0381573 0.137534 -0.000337525)
(0.276366 0.811362 -0.000214645)
(0.276062 0.810388 -0.000138258)
(0.286747 0.666238 -0.000139959)
(0.286448 0.665529 -0.0001221)
(-0.190258 1.76335 -0.000194916)
(-0.0638584 1.56124 -0.000237669)
(1.39071 0.922096 -0.000300871)
(-0.8811 2.86559 -0.000572011)
(-0.0668431 1.63388 -0.000316303)
(-0.207463 1.92155 -0.000434262)
(0.0679412 0.249022 1.09876e-06)
(0.0652784 0.239316 3.19954e-06)
(0.0368712 0.133657 7.60197e-06)
(0.0364177 0.127997 8.80683e-06)
(0.0292691 0.102922 6.18053e-06)
(0.034572 0.125354 5.9991e-06)
(0.412642 2.44175 -0.00560433)
(0.386651 2.28779 -0.00529704)
(8.55431e-05 -0.0025368 1.90482e-05)
(-0.00278627 -0.019157 5.85288e-05)
(-0.0276199 -0.173402 0.000411408)
(-0.0243332 -0.153159 0.000360564)
(-0.00776684 -0.0479782 0.00012779)
(-0.00408259 -0.0266579 7.61762e-05)
(1.34625 0.89139 -0.00248038)
(1.35635 0.898104 -0.00249724)
(1.36349 0.902857 -0.00250466)
(1.35709 0.898593 -0.00249795)
(-0.0220379 -0.130549 0.00032892)
(-0.0162153 -0.0968596 0.000246116)
(0.350891 2.07512 -0.0047941)
(0.376658 2.2284 -0.0051641)
(-0.0927492 -0.746492 0.00172226)
(-0.0290827 -0.182411 0.000433457)
(-0.0332634 -0.208156 0.00049739)
(-0.00944576 -0.0576935 0.000150983)
(-0.0141541 -0.0849349 0.000217238)
(0.198755 0.861665 -0.00206008)
(0.517387 2.5356 -0.00592477)
(0.190464 0.825872 -0.00196764)
(0.481647 2.35969 -0.00555323)
(0.283668 2.41421 -0.00554971)
(0.292045 2.48592 -0.00572432)
(0.0645977 0.264062 -0.00024897)
(0.0522986 0.193845 -0.000437904)
(0.0551221 0.204351 -0.00046396)
(0.0606488 0.247823 -0.000863401)
(0.0957606 0.418932 -0.000920575)
(0.0635817 0.291373 -0.000626854)
(0.0913297 0.3994 -0.000870961)
(0.0676605 0.310249 -0.000674234)
(0.0584392 0.216696 -0.000494313)
(0.0560625 0.207851 -0.000472824)
(0.069415 0.283876 -0.000272616)
(-0.00231212 1.37536 -0.0030755)
(0.0576282 0.862472 -0.00195249)
(0.0589418 0.882245 -0.00199604)
(-0.00225832 1.34829 -0.00301508)
(-0.0640583 1.58155 -0.00351317)
(1.34343 0.889504 -0.00247281)
(-0.064797 1.59956 -0.00355398)
(-0.00233101 1.38469 -0.00309533)
(0.0604176 0.904493 -0.002045)
(-0.00236238 1.39805 -0.00312545)
(0.0593767 0.888797 -0.00201048)
(-0.0636224 1.57086 -0.00349035)
(1.34033 0.88745 -0.00246651)
(-0.062418 1.54133 -0.00342437)
(0.317928 2.707 -0.00619323)
(0.312006 2.65637 -0.00608366)
(0.0419517 0.155343 -0.000341239)
(0.0462224 0.171235 -0.000381285)
(0.0541272 0.221007 -0.000761399)
(0.0510877 0.189339 -0.000426757)
(0.058835 0.240365 -0.00022035)
(0.0476765 0.176645 -0.000394765)
(0.0798357 0.34872 -0.000743748)
(0.0581808 0.266376 -0.000565065)
(0.0850824 0.371857 -0.000802537)
(0.0534306 0.244385 -0.000509318)
(-0.0574833 1.42013 -0.00315458)
(-0.059748 1.47583 -0.00327686)
(1.31904 0.873315 -0.00242123)
(0.0521696 0.780389 -0.00177019)
(-0.00202909 1.22881 -0.00274874)
(-0.00213243 1.28433 -0.00287106)
(0.0545144 0.815621 -0.00184835)
(-0.00216412 1.30069 -0.00290781)
(0.0570645 0.853969 -0.00193399)
(0.0553158 0.827672 -0.00187464)
(-0.00223385 1.33667 -0.00298996)
(-0.0604184 1.49228 -0.00331377)
(1.32375 0.876441 -0.00243029)
(-0.0619338 1.52948 -0.00339901)
(0.0759286 0.297419 -0.000755411)
(0.0761871 0.298296 -0.000757724)
(0.0560332 0.204653 -0.000538668)
(0.0561932 0.205379 -0.000542839)
(0.0761621 0.298517 -0.00075723)
(0.242492 1.143 -0.00273717)
(0.406957 1.99146 -0.00475087)
(0.228032 1.02832 -0.00248335)
(0.176873 0.765063 -0.00187934)
(0.177903 0.769689 -0.00188671)
(0.23522 1.06131 -0.00255776)
(0.41513 2.0318 -0.00481377)
(0.254169 1.19854 -0.00286064)
(0.0776285 0.303699 -0.000765713)
(0.0772279 0.30218 -0.000763743)
(0.0762134 0.29835 -0.000757438)
(0.0561221 0.204931 -0.000538261)
(0.057677 0.210477 -0.000546341)
(0.264344 1.76095 -0.00408471)
(0.421404 2.62853 -0.00611774)
(0.277389 1.63906 -0.00382217)
(0.284086 1.67878 -0.00391203)
(0.452322 2.82187 -0.00653807)
(0.442516 2.76063 -0.00640557)
(0.271086 1.80601 -0.00417485)
(-0.00213497 -0.0143345 6.38247e-05)
(-0.0266351 -0.157147 0.000394167)
(0.0504143 0.246252 -0.000502754)
(0.0052798 0.0254454 -2.27547e-05)
(-0.0290988 -0.1714 0.000429622)
(-0.00987924 -0.0564358 0.000167943)
(-0.0658046 -0.436702 0.00105609)
(-0.0538299 -0.334861 0.000819357)
(-0.0657591 -0.477783 0.00113072)
(-0.0520336 -0.323758 0.000787897)
(-0.0617116 -0.409642 0.000980225)
(0.463662 2.89282 -0.00669398)
(0.473053 2.95158 -0.00682029)
(0.294738 1.96413 -0.00451838)
(0.288729 1.92396 -0.0044309)
(-0.0217994 -0.1214 0.000336553)
(-0.0387183 -0.227107 0.000572858)
(0.0437393 0.213078 -0.000419936)
(0.00195309 0.00784762 2.09052e-05)
(0.0374623 0.181866 -0.000342631)
(-0.0363 -0.213074 0.000535366)
(-0.0129279 -0.0730131 0.000209511)
(0.029538 0.106664 -0.000286027)
(0.0298545 0.107895 -0.000290829)
(0.0295734 0.106763 -0.000285485)
(0.0305296 0.110135 -0.000290076)
(0.116277 0.340421 -0.000737848)
(0.141967 0.415851 -0.000935914)
(0.189649 0.439912 -0.00103531)
(0.184316 0.427531 -0.00100409)
(0.156984 0.36408 -0.000843289)
(0.165105 0.38294 -0.000894762)
(0.148924 0.436283 -0.000988932)
(-0.597754 1.94697 -0.00412231)
(1.30537 0.864216 -0.00238487)
(-0.0560841 1.38584 -0.003076)
(-0.167629 1.55944 -0.00342325)
(-0.570174 1.85731 -0.00399223)
(-0.500637 1.63022 -0.0033563)
(-0.518665 1.68927 -0.00358155)
(-0.144937 1.34908 -0.00295686)
(-0.0502598 1.24273 -0.00275251)
(1.28779 0.852539 -0.00232692)
(-0.55297 1.80142 -0.00381896)
(0.088159 0.321505 -0.000735425)
(0.0812373 0.296241 -0.000694278)
(0.144079 0.135736 -0.000360633)
(0.398084 -0.165285 0.000243537)
(0.384172 -0.159506 0.000233533)
(0.158071 0.148929 -0.000389632)
(0.0546813 0.191244 -0.000426823)
(0.0509675 0.183775 -0.000418119)
(0.0463984 0.167274 -0.000390919)
(0.041135 0.143776 -0.00034022)
(0.189591 0.178643 -0.000460046)
(0.415082 -0.172333 0.000244901)
(0.433004 -0.179737 0.000247834)
(0.174032 0.163979 -0.000423162)
(0.689296 3.38121 -0.0032283)
(0.235187 1.02069 -0.000945903)
(0.263826 1.14486 -0.00132769)
(0.691339 3.39116 -0.00395231)
(0.242548 1.05208 -0.00185484)
(0.709662 3.48 -0.00583543)
(0.242623 1.05251 -0.00173434)
(0.643512 3.15488 -0.00556931)
(0.207252 0.8988 -0.00187966)
(0.674574 3.307 -0.00678654)
(0.202384 0.877773 -0.00182781)
(0.68753 3.37058 -0.00703183)
(-0.0652377 -0.527825 0.000471477)
(-0.0329519 -0.241653 0.000231263)
(-0.0466283 -0.33992 0.000764589)
(-0.0596124 -0.433491 0.00101418)
(-0.0970856 -0.781066 0.00181287)
(-0.0522774 -0.514339 0.000771837)
(-0.00524378 -0.158788 0.000253479)
(-0.00524895 -0.158992 0.000232284)
(0.000110008 -0.0106529 1.84953e-05)