/*--------------------------------*- C++ -*----------------------------------*\
| =========                 |                                                 |
| \\      /  F ield         | OpenFOAM: The Open Source CFD Toolbox           |
|  \\    /   O peration     | Version:  2306                                  |
|   \\  /    A nd           | Website:  www.openfoam.com                      |
|    \\/     M anipulation  |                                                 |
\*---------------------------------------------------------------------------*/
FoamFile
{
    version     2.0;
    format      ascii;
    arch        "LSB;label=32;scalar=64";
    class       volScalarField;
    location    "1.95";
    object      p;
}
// * * * * * * * * * * * * * * * * * * * * * * * * * * * * * * * * * * * * * //

dimensions      [0 2 -2 0 0 0 0];

internalField   nonuniform List<scalar> 
111542
(
59.5663
60.9014
64.073
69.2533
76.5299
86.1264
98.2131
112.828
129.481
146.74
162.032
171.321
170.544
158.477
138.154
115.246
93.6889
74.9788
59.3088
46.6008
36.5219
28.7634
22.9235
18.4821
15.1089
12.5306
10.4614
8.85914
7.667
6.75266
6.02924
5.43736
4.98672
4.60489
4.23875
3.84533
3.37034
2.80794
2.05644
1.02461
58.5263
59.8225
62.9632
68.0835
75.3524
85.0974
97.7005
113.42
132.092
152.637
172.34
185.621
184.86
168.736
143.033
116.335
92.7554
72.9829
56.8603
44.0995
34.2809
26.8642
21.296
17.1807
14.0911
11.7015
9.83268
8.3937
7.29196
6.4312
5.74415
5.18798
4.73575
4.34548
3.97596
3.58832
3.13839
2.58042
1.84354
0.871021
56.4658
57.6962
60.6958
65.6341
72.7892
82.6807
96.0291
113.649
136.206
163.535
192.29
213.826
213.891
188.506
152.404
119.258
91.8817
69.9816
52.9331
40.0071
30.5024
23.7805
18.8946
15.2852
12.3674
10.0103
8.22957
6.9293
5.96849
5.2432
4.68985
4.2644
3.93006
3.65236
3.39522
3.12137
2.78608
2.3325
1.68573
0.764714
53.4353
54.5389
57.2442
61.7653
68.4908
78.1554
91.9155
111.477
139.253
178.498
213.76
256.571
262.264
221.377
169.113
128.55
95.4544
70.1411
51.4757
37.8843
24.1688
18.0194
15.2365
13.5382
11.4334
9.33464
7.66986
6.41983
5.45121
4.68499
4.08217
3.60991
3.23657
2.93038
2.66152
2.39771
2.09424
1.68925
1.08762
0.162955
49.5431
50.4372
52.642
56.3862
62.1095
70.6608
83.4881
103.017
133.271
178.204
255.323
341.762
365.825
258.012
173.128
124.148
84.6311
57.7876
39.9881
28.6027
21.5476
7.63037
6.33042
6.44672
5.62343
4.71818
4.0748
3.59889
3.20707
2.88473
2.6298
2.4309
2.275
2.14613
2.03077
1.91121
1.75614
1.5114
1.05821
0.0993532
44.9827
45.5767
47.0523
49.5954
53.5796
59.7384
69.3981
85.0032
111.296
165.993
259.669
454.681
620.99
249.256
174.877
115.365
68.1982
41.6849
25.9345
16.5544
14.574
12.6465
11.9357
7.51965
4.47477
3.03185
2.26456
1.71791
1.30906
1.02953
0.852615
0.745251
0.683175
0.650128
0.634062
0.623595
0.606473
0.573413
0.538848
0.65356
40.0435
40.2658
40.8234
41.8013
43.3756
45.8789
49.8834
56.3519
66.9329
106.051
181.176
409.717
1953.83
-414.944
198.375
78.79
32.3485
16.7932
8.21072
-1.3489
-5.58888
15.2925
14.7193
9.15583
5.75394
4.35003
3.65341
3.13359
2.72567
2.43303
2.22982
2.08312
1.97231
1.88388
1.80963
1.743
1.67091
1.58697
1.49007
1.422
35.0912
34.9155
34.4756
33.7324
32.6105
30.9276
28.2652
23.6511
14.6511
16.4512
-1.44119
-165.43
-1005.86
-1038.62
-312.55
-100.882
-45.708
-25.5252
-16.5506
-10.5369
-4.36806
-8.6195
-6.59767
-4.86311
-3.89224
-2.91961
-1.98102
-1.21969
-0.625003
-0.141509
0.26187
0.597523
0.874025
1.09781
1.27302
1.39888
1.46065
1.42776
1.23406
0.752504
30.5339
29.9855
28.6071
26.2575
22.6597
17.2469
8.98431
-4.03899
-25.4685
-49.1175
-123.271
-268.245
-477.464
-504.654
-319.786
-174.934
-100.388
-61.1973
-39.2779
-25.4499
-15.7108
-9.12672
-4.94879
-1.92456
-0.106069
1.01934
1.81281
2.37572
2.75361
2.99924
3.15523
3.24721
3.28922
3.28813
3.24394
3.14978
2.98181
2.69158
2.18431
1.26995
26.7597
25.8962
23.7553
20.1234
14.612
6.48634
-5.46903
-23.234
-50.0941
-91.6468
-149.727
-222.605
-287.84
-295.823
-238.415
-165.56
-110.414
-74.9541
-51.9051
-35.9208
-24.6184
-17.1517
-12.0464
-8.36352
-5.74892
-3.88144
-2.47179
-1.37027
-0.508096
0.166421
0.697887
1.11826
1.44655
1.69247
1.85588
1.93088
1.89496
1.70598
1.30315
0.636025
24.0702
22.9905
20.3231
15.8321
9.08722
-0.645769
-14.4788
-33.9091
-60.8014
-97.0049
-142.445
-191.856
-230.478
-237.661
-207.424
-158.842
-114.601
-82.2239
-59.4093
-42.7423
-30.3415
-21.2563
-14.5627
-9.61779
-5.98776
-3.33735
-1.38738
0.0586361
1.127
1.9074
2.46969
2.866
3.13146
3.28612
3.3301
3.27489
3.09752
2.75128
2.16217
1.19514
22.6729
21.4925
18.5474
13.652
6.30257
-4.14112
-18.7039
-38.5345
-64.7898
-97.8143
-136.084
-174.167
-202.102
-208.375
-188.884
-153.144
-115.844
-85.4555
-62.7785
-45.794
-32.9341
-23.3085
-16.2239
-11.0418
-7.29693
-4.57786
-2.58613
-1.11217
-0.0139217
0.805531
1.41596
1.86731
2.19423
2.42098
2.49415
2.48973
2.36651
2.07393
1.5603
0.767699
58.9601
60.2426
63.3364
68.346
75.3762
84.6437
96.3523
110.498
126.598
143.313
158.137
167.125
166.27
154.516
134.787
112.54
91.6187
73.3985
58.0994
45.6474
35.7974
28.1918
22.4221
18.0746
14.7685
12.1998
10.1765
8.61291
7.42854
6.52509
5.82453
5.27345
4.83764
4.47028
4.12711
3.7669
3.34451
2.81098
2.08466
1.0601
57.9327
59.1921
62.2363
67.1884
74.2157
83.6392
95.8358
111.053
129.139
149.073
168.223
181.188
180.203
164.42
139.439
113.549
90.6598
71.3976
55.6471
43.1613
33.5448
26.2475
20.7633
16.7393
13.7205
11.3689
9.53031
8.11649
7.03442
6.19524
5.53431
5.0076
4.58069
4.21581
3.87622
3.52396
3.11655
2.59962
1.90019
0.934757
55.9038
57.1016
60.0045
64.7783
71.6949
81.2601
94.178
111.248
133.131
159.693
187.658
208.552
208.606
183.693
148.538
116.413
89.8181
68.4396
51.7466
39.0765
29.747
23.1018
18.2936
14.7581
11.894
9.58477
7.85628
6.61054
5.70156
5.02355
4.51335
4.12674
3.82692
3.58014
3.35438
3.11501
2.82097
2.41359
1.80785
0.88108
52.922
53.9965
56.6117
60.9773
67.4733
76.8163
90.1376
109.114
136.135
174.446
210.156
252.283
257.637
216.931
165.745
126.2
93.7831
68.8624
50.4437
36.9978
22.9002
16.755
14.4195
12.9429
10.8451
8.74149
7.11754
5.93371
5.03646
4.33924
3.80029
3.38454
3.06076
2.79879
2.57243
2.35398
2.10556
1.7662
1.23109
0.319859
49.0956
49.965
52.0919
55.6994
61.2184
69.4787
81.9016
100.881
130.413
175.403
251.681
337.115
360.053
252.288
169.418
122.226
83.3477
56.6682
38.9141
27.409
19.4447
4.52742
4.3508
5.25346
4.72143
3.97514
3.47474
3.11992
2.82039
2.56623
2.36074
2.19594
2.06356
1.95249
1.85424
1.75947
1.64729
1.46902
1.10152
0.199236
44.6177
45.1924
46.6081
49.0451
52.871
58.8057
68.1573
83.3541
109.138
163.828
257.372
451.218
615.136
242.222
170.495
115.206
67.8811
40.9187
24.8064
14.9855
7.1754
11.0183
10.653
6.28805
3.3527
2.08704
1.51052
1.13228
0.856673
0.675411
0.567091
0.504848
0.473096
0.462207
0.468257
0.489335
0.525084
0.578359
0.667737
0.892835
39.7682
39.9812
40.5028
41.4154
42.8962
45.2753
49.1261
55.4306
65.9052
105.065
180.429
409.921
1940.1
190.863
78.1172
32.2371
16.9732
8.31895
-2.43171
-8.14348
14.4431
13.9655
8.26007
4.89712
3.60085
2.97308
2.47884
2.07092
1.76395
1.53961
1.37128
1.24439
1.14903
1.08151
1.03998
1.02224
1.02949
1.0706
1.18641
34.8975
34.7349
34.2848
33.5218
32.3796
30.6858
28.0434
23.5328
14.8318
16.7864
-0.390079
-161.023
-986.038
-1025.46
-308.286
-98.8355
-44.5498
-25.0309
-16.4356
-10.467
-2.36781
-8.05981
-6.63662
-5.2644
-4.32577
-3.29744
-2.32363
-1.5455
-0.939996
-0.449648
-0.0431103
0.294117
0.573424
0.803305
0.992049
1.14385
1.25152
1.28854
1.18484
0.765374
30.4392
29.9036
28.5367
26.2115
22.6611
17.3374
9.24137
-3.47702
-24.3612
-47.8783
-120.518
-263.28
-469.728
-494.737
-313.932
-171.339
-98.2888
-60.107
-38.7765
-25.2248
-15.3339
-9.04141
-5.25514
-2.4254
-0.607005
0.553809
1.36257
1.92472
2.29408
2.52663
2.6676
2.74567
2.77753
2.77267
2.7343
2.65942
2.52875
2.298
1.87705
1.08824
26.7402
25.8911
23.79
20.2186
14.8063
6.84519
-4.84439
-22.1832
-48.3671
-88.88
-145.543
-216.728
-280.659
-288.204
-232.014
-161.129
-107.727
-73.4656
-51.1463
-35.6105
-24.5828
-17.273
-12.3134
-8.70382
-6.10931
-4.24135
-2.82562
-1.71828
-0.853276
-0.179445
0.349109
0.765896
1.09181
1.33841
1.50905
1.60003
1.59243
1.44786
1.11101
0.541299
24.1097
23.0524
20.4343
16.0247
9.41807
-0.104989
-13.6208
-32.5838
-58.8026
-94.0861
-138.363
-186.492
-224.195
-231.329
-201.894
-154.785
-111.958
-80.6389
-58.5205
-42.3097
-30.2164
-21.3341
-14.7673
-9.91191
-6.33888
-3.71941
-1.78434
-0.346378
0.715291
1.48862
2.04383
2.43377
2.69447
2.84792
2.90247
2.86127
2.70715
2.40051
1.87757
1.03226
22.7477
21.5788
18.7044
13.8845
6.70759
-3.51055
-17.7355
-37.0957
-62.6727
-94.879
-132.189
-169.318
-196.595
-202.883
-184.089
-149.377
-113.219
-83.8058
-61.8075
-45.2835
-32.7337
-23.3207
-16.3794
-11.3081
-7.61503
-4.92142
-2.94295
-1.47516
-0.379934
0.437254
1.04526
1.49376
1.81625
2.03118
2.13759
2.14677
2.03983
1.77974
1.32571
0.653524
57.8208
59.0268
61.9303
66.6155
73.1839
81.8392
92.7746
105.974
120.985
136.572
150.359
158.641
157.716
146.557
127.942
106.999
87.2804
70.0265
55.4727
43.5898
34.1754
26.8684
21.2871
17.0856
13.9023
11.4312
9.49297
7.98971
6.83912
5.95797
5.2757
4.73996
4.3104
3.95048
3.62399
3.29307
2.91528
2.43793
1.79208
0.89107
56.8216
58.0084
60.8605
65.4893
72.0527
80.8508
92.2358
106.437
123.318
141.935
159.847
171.766
170.771
155.772
132.205
107.872
86.3056
68.0498
53.0597
41.1613
31.9921
24.9526
19.6387
15.7841
12.9198
10.6762
8.90157
7.5189
6.44677
5.608
4.9449
4.41615
3.98736
3.62634
3.30185
2.97996
2.6211
2.17327
1.57003
0.744249
54.8515
55.9805
58.6954
63.1508
69.6022
78.5234
90.5746
106.512
126.977
151.878
178.145
197.915
197.592
173.77
140.635
110.516
85.452
65.1492
49.2375
37.1875
28.4318
21.971
17.2195
13.8186
11.1233
8.93773
7.27351
6.05267
5.14727
4.46245
3.94177
3.54521
3.23871
2.99325
2.78139
2.57481
2.3377
2.01708
1.53016
0.754155
51.9599
52.9711
55.4102
59.4729
65.5176
74.2174
86.6398
104.381
129.749
165.934
201.203
241.604
246.305
206.672
157.914
120.625
89.7268
65.8018
48.0767
35.1492
21.399
15.7137
13.6105
12.1915
10.0397
7.8472
6.13307
4.86674
3.89877
3.14701
2.57116
2.13672
1.81186
1.56738
1.38027
1.22864
1.08349
0.894905
0.572443
-0.0284056
48.2556
49.0713
51.0445
54.3838
59.4973
67.1683
78.7479
96.5336
124.421
168.412
242.194
325.051
346.193
240.28
161.871
117.573
80.0228
54.014
36.6987
25.5356
18.175
2.56275
3.5402
4.96728
4.3442
3.35263
2.64799
2.14188
1.7293
1.39339
1.13207
0.933955
0.789587
0.686957
0.622372
0.594639
0.600038
0.612186
0.535033
0.030981
43.9222
44.4647
45.7621
47.9889
51.4977
56.9726
65.6694
79.9442
104.482
158.164
250.337
441.052
599.168
228.508
165.454
112.864
66.0331
39.0059
23.0127
13.3967
9.75123
6.55611
6.79986
2.83192
-0.175
-1.62445
-2.3104
-2.72149
-2.98139
-3.11366
-3.14826
-3.12173
-3.04369
-2.92772
-2.77459
-2.57554
-2.309
-1.93449
-1.3597
-0.300927
39.2424
39.4372
39.8863
40.6704
41.9629
44.0833
47.5921
53.4886
63.5873
102.356
177.807
408.142
1916.08
208.796
85.4514
34.6871
16.4594
6.76833
-3.55069
-8.90536
14.4928
12.3603
5.70093
1.99995
0.560122
-0.11373
-0.573178
-0.894399
-1.09032
-1.1952
-1.24315
-1.25347
-1.22758
-1.16397
-1.05104
-0.866918
-0.580214
-0.135278
0.540238
34.5536
34.3835
33.9119
33.1117
31.9266
30.2013
27.5806
23.2422
15.0894
17.5011
2.28761
-151.404
-969.036
-1005.04
-294.782
-91.6994
-41.5526
-24.3607
-16.8181
-11.2909
-4.34037
-8.4841
-8.05442
-7.25235
-6.30481
-5.13152
-4.02814
-3.13653
-2.43023
-1.85547
-1.37848
-0.979472
-0.643958
-0.35699
-0.0992998
0.143018
0.38001
0.60113
0.744242
0.583874
30.2567
29.7317
28.3962
26.1196
22.66
17.5094
9.73948
-2.37219
-22.1382
-44.7372
-113.865
-251.139
-451.416
-475.738
-299.408
-162.371
-93.4775
-57.7957
-37.8337
-25.0353
-15.6671
-9.98049
-6.4113
-3.70773
-1.94723
-0.813811
-0.00849216
0.573365
0.979206
1.25765
1.45105
1.58582
1.67811
1.73801
1.7755
1.79342
1.78284
1.71043
1.49146
0.933727
26.6998
25.8821
23.844
20.3889
15.1719
7.53194
-3.63198
-20.1144
-44.9143
-83.2317
-136.877
-204.475
-265.475
-272.796
-219.391
-152.505
-102.537
-70.571
-49.6416
-34.9924
-24.6015
-17.8178
-12.9195
-9.34039
-6.83285
-5.03203
-3.63407
-2.51133
-1.61602
-0.906329
-0.339362
0.116573
0.483126
0.771199
0.990832
1.14231
1.21348
1.17288
0.966116
0.529328
24.1733
23.1527
20.6294
16.3832
10.0401
0.92562
-11.9649
-29.9922
-54.8504
-88.2496
-130.15
-175.746
-211.656
-218.658
-191.014
-146.742
-106.639
-77.3345
-56.5481
-41.2349
-29.7804
-21.342
-14.9939
-10.2819
-6.83993
-4.32217
-2.44855
-1.04042
0.0115942
0.788717
1.35771
1.76913
2.05822
2.24661
2.34729
2.36209
2.27874
2.0651
1.66251
0.961279
22.8683
21.7409
18.9735
14.3375
7.45926
-2.31063
-15.8688
-34.2733
-58.5301
-89.0402
-124.371
-159.564
-185.53
-191.752
-174.301
-141.812
-107.947
-80.3783
-59.6724
-44.0391
-32.1199
-23.1474
-16.4835
-11.5768
-7.98989
-5.37423
-3.4487
-2.00919
-0.923372
-0.102737
0.517385
0.984467
1.33089
1.57517
1.72584
1.78245
1.73317
1.55047
1.19735
0.640077
56.2494
57.3472
59.9755
64.206
70.1251
77.9092
87.7222
99.5368
112.934
126.799
138.988
146.165
145.102
134.816
117.866
98.8582
80.9074
65.0939
51.6704
40.6643
31.9139
25.06
19.7312
15.6534
12.5604
10.1865
8.34714
6.9314
5.85326
5.03381
4.40601
3.91862
3.53282
3.21622
2.93804
2.66611
2.36327
1.9818
1.46123
0.723887
55.2887
56.3693
58.9477
63.1203
69.0253
76.9251
87.1251
99.8186
114.874
131.444
147.38
157.647
156.574
142.818
121.438
99.4416
79.8448
63.1184
49.3106
38.3345
29.8665
23.1955
18.0161
14.2284
11.4576
9.32756
7.65978
6.36898
5.37716
4.61078
4.0139
3.54521
3.17168
2.86474
2.59844
2.34534
2.07257
1.7356
1.27267
0.612215
53.3989
54.4249
56.8717
60.874
66.6585
74.6425
85.4078
99.6226
117.862
140.062
163.481
181.145
180.319
158.458
128.592
101.522
78.7877
60.196
45.5709
34.5598
26.7634
20.3977
15.2738
11.7737
9.29558
7.39018
5.94489
4.88193
4.09751
3.5084
3.06372
2.72921
2.47702
2.28222
2.12652
1.99052
1.84991
1.66103
1.34159
0.730169
50.6293
51.5464
53.7324
57.3602
62.7495
70.4974
81.5534
97.3486
119.987
152.451
186.163
223.278
226.986
189.763
145.306
111.508
83.0172
60.82
44.3602
32.4338
19.6678
14.0638
10.9579
9.13304
7.27314
5.54266
4.21505
3.24269
2.50026
1.91861
1.46672
1.12507
0.870497
0.681527
0.551797
0.474675
0.442517
0.426836
0.349168
0.00558776
47.0897
47.8263
49.577
52.5275
57.0444
63.8264
74.0872
89.9076
114.897
156.388
224.858
302.495
321.237
220.387
149.92
109.551
73.8994
49.1998
32.8695
22.3987
15.2136
-2.7134
-0.850908
1.55892
1.60738
1.0451
0.617714
0.294935
0.00218109
-0.259572
-0.480715
-0.652622
-0.781711
-0.869491
-0.902196
-0.862321
-0.724157
-0.473969
-0.167727
-0.170205
42.9609
43.4427
44.5668
46.4879
49.5242
54.2908
61.9218
74.5831
96.6838
147.596
236.065
420.14
568.858
206.144
157.999
108.576
61.2772
34.5054
19.1066
9.78729
4.6174
-6.39897
-2.18088
-1.8525
-2.74609
-3.24172
-3.45326
-3.64409
-3.84602
-4.02105
-4.15219
-4.25221
-4.30155
-4.30018
-4.22972
-4.05591
-3.71867
-3.11207
-2.05629
-0.307114
38.5114
38.6726
39.0137
39.6075
40.6126
42.3161
45.2296
50.3048
59.3536
96.5028
170.778
403.928
1866.2
194.012
88.5922
33.0273
13.1505
3.10921
-6.91975
-14.2588
14.4978
11.2678
4.14322
0.150263
-1.69499
-2.74479
-3.48841
-4.02063
-4.37653
-4.60102
-4.72522
-4.77961
-4.77226
-4.68313
-4.48585
-4.12435
-3.50403
-2.47272
-0.854056
34.0693
33.8866
33.3799
32.5206
31.2601
29.458
26.805
22.5927
15.0221
17.7473
5.31448
-133.988
-908.35
-972.382
-269.814
-81.3882
-38.7903
-24.7674
-18.3846
-13.1539
-5.44075
-8.25523
-7.90314
-7.27742
-6.46112
-5.47642
-4.55124
-3.80157
-3.21518
-2.74974
-2.37431
-2.0569
-1.80204
-1.58088
-1.35924
-1.10828
-0.793414
-0.385361
0.0900159
0.347316
29.9963
29.4861
28.1872
25.975
22.6353
17.7149
10.3859
-0.881604
-19.0368
-39.9955
-103.476
-230.789
-418.811
-441.608
-274.282
-148.332
-86.6359
-54.8612
-36.904
-25.256
-16.7884
-12.183
-7.67002
-4.37888
-2.63227
-1.70263
-1.08477
-0.650894
-0.365126
-0.182379
-0.0605534
0.0267189
0.0906354
0.146375
0.209015
0.289069
0.39109
0.504021
0.565966
0.413527
26.631
25.8507
23.9036
20.6118
15.6669
8.4777
-1.94052
-17.187
-39.9398
-74.8854
-123.774
-185.502
-241.342
-248.234
-199.9
-139.652
-95.0114
-66.41
-47.4906
-34.1623
-24.772
-18.7783
-13.5033
-9.60211
-7.10374
-5.41776
-4.11716
-3.06849
-2.23582
-1.57975
-1.05695
-0.634828
-0.293261
-0.0171929
0.208631
0.389599
0.522623
0.589255
0.545675
0.333281
24.2435
23.2738
20.8808
16.864
10.8895
2.35183
-9.64882
-26.3238
-49.183
-79.7579
-118.018
-159.634
-192.569
-199.263
-174.513
-134.777
-98.8486
-72.4968
-53.628
-39.6195
-29.1158
-21.3397
-15.2351
-10.5923
-7.23115
-4.81516
-3.03562
-1.70706
-0.722687
-0.00249373
0.520633
0.89797
1.16512
1.34553
1.45595
1.5012
1.47422
1.35275
1.09317
0.627513
23.0131
21.9437
19.3262
14.9531
8.49031
-0.64724
-13.2638
-30.2975
-52.6386
-80.6316
-112.97
-145.18
-169.057
-175.078
-159.668
-130.636
-100.249
-75.3673
-56.5181
-42.1701
-31.1713
-22.8413
-16.553
-11.8079
-8.29897
-5.7505
-3.88842
-2.50262
-1.46093
-0.677278
-0.0880563
0.354595
0.683784
0.920555
1.07689
1.15491
1.14655
1.03329
0.790671
0.415083
54.3727
55.3372
57.6307
61.3089
66.4365
73.15
81.5684
91.6388
102.968
114.573
124.611
130.311
128.971
119.789
105.007
88.495
72.8099
58.8495
46.8804
36.9955
29.109
22.9256
18.0808
14.2996
11.3864
9.1439
7.40997
6.07436
5.05418
4.27842
3.68509
3.22203
2.85531
2.55742
2.30693
2.07626
1.83344
1.53696
1.1417
0.572791
53.4571
54.4062
56.6507
60.2675
65.366
72.1543
80.8682
91.636
104.299
118.084
131.105
139.293
137.945
125.856
107.435
88.5209
71.5063
56.8001
44.5481
34.7717
27.2657
21.3729
16.7251
13.1616
10.4672
8.38167
6.74792
5.47939
4.50406
3.75743
3.18669
2.74056
2.38831
2.1077
1.87776
1.67609
1.47738
1.24916
0.937836
0.470726
51.6602
52.5589
54.677
58.1242
63.0846
69.8954
79.0202
90.9795
106.2
124.574
143.848
157.926
156.439
137.52
112.23
89.2982
69.7712
53.5666
40.7071
31.1044
24.7589
19.4002
14.4802
10.9095
8.45903
6.64381
5.26269
4.22349
3.44326
2.84528
2.38131
2.03071
1.77093
1.57702
1.43479
1.334
1.26443
1.19928
1.0714
0.69625
49.0359
49.8328
51.7064
54.7977
59.3689
65.9061
75.1764
88.3271
107.053
133.796
164.345
195.582
197.794
164.984
127.133
98.1575
73.2526
53.7795
39.2931
29.0304
19.6798
17.0537
11.7124
7.77253
5.13538
3.23866
1.89673
0.963561
0.293745
-0.198679
-0.558469
-0.807473
-0.967486
-1.06463
-1.09842
-1.05858
-0.929783
-0.701497
-0.39489
-0.175849
45.6914
46.3233
47.7978
50.2653
54.0284
59.659
68.1426
81.1734
101.733
138.502
196.805
263.892
278.709
188.934
131.474
95.6492
63.5912
41.7403
27.468
18.8403
15.6038
7.58388
5.39165
3.80223
2.11314
0.676037
-0.352296
-1.11649
-1.73198
-2.23415
-2.63915
-2.94476
-3.16444
-3.31188
-3.36823
-3.29039
-3.0234
-2.47841
-1.57783
-0.567413
41.8039
42.2048
43.1115
44.6487
47.0796
50.9046
57.0428
67.272
85.2707
130.291
209.734
376.936
511.476
173.766
155.484
96.2452
50.3928
25.9294
12.4351
4.39188
-3.93456
-32.5978
-29.0196
-26.5482
-25.3701
-24.1905
-23.0857
-22.18
-21.4301
-20.7692
-20.1618
-19.6081
-19.0666
-18.4981
-17.8714
-17.1279
-16.148
-14.6829
-12.1722
-7.21839
37.6275
37.7418
37.9451
38.2952
38.9227
40.0504
42.0827
45.7891
52.6949
85.5417
153.442
373.86
1788.19
276.776
72.795
17.6816
-0.524537
-8.50322
-14.3437
-18.962
-1.41426
-4.35975
-9.38361
-11.917
-12.9311
-13.4283
-13.729
-13.8822
-13.9072
-13.8371
-13.7133
-13.5057
-13.2239
-12.8515
-12.3308
-11.5516
-10.2867
-8.10441
-4.34437
33.4683
33.2736
32.7196
31.7786
30.4054
28.4682
25.689
21.4556
14.2755
16.4924
5.86389
-119.606
-838.433
-865.075
-231.178
-72.7258
-40.0491
-29.1919
-23.5069
-18.3311
-13.0479
-22.2115
-18.1756
-14.2838
-12.0033
-10.3881
-9.12442
-8.1713
-7.46287
-6.92456
-6.50407
-6.15663
-5.86706
-5.60045
-5.31559
-4.96034
-4.4625
-3.71097
-2.58558
-1.15746
29.6654
29.1731
27.911
25.7691
22.5629
17.9017
11.0778
0.803875
-15.3841
-34.0675
-89.5031
-200.993
-366.14
-383.179
-236.515
-130.015
-78.7415
-51.935
-36.3626
-26.3584
-20.6024
-19.5756
-12.9932
-7.79447
-5.2231
-3.89926
-3.02192
-2.40711
-1.99731
-1.72672
-1.53928
-1.402
-1.2955
-1.19147
-1.06939
-0.905867
-0.673383
-0.346656
0.0566147
0.338472
26.5256
25.7882
23.9483
20.8481
16.2269
9.57815
0.0673083
-13.6445
-33.7848
-64.2524
-106.466
-159.427
-207.021
-213.228
-173.056
-122.886
-85.5263
-61.1893
-44.7454
-33.0838
-25.1139
-20.5367
-15.2555
-10.9973
-8.24764
-6.38841
-4.95357
-3.80485
-2.90193
-2.19784
-1.64372
-1.20144
-0.848829
-0.559343
-0.314553
-0.0995799
0.0948709
0.266588
0.382746
0.345329
24.3015
23.3927
21.1537
17.4099
11.8781
4.04049
-6.86664
-21.8571
-42.1756
-69.0606
-102.399
-138.401
-166.932
-173.059
-152.527
-119.298
-88.9483
-66.3052
-49.7815
-37.3707
-28.0697
-21.2507
-15.7501
-11.3245
-7.99952
-5.56624
-3.75422
-2.38814
-1.36534
-0.607946
-0.0495317
0.361347
0.661183
0.877282
1.02839
1.12445
1.16537
1.1365
0.998035
0.654023
23.158
22.1574
19.7174
15.6569
9.69165
1.32172
-10.1352
-25.4638
-45.3866
-70.139
-98.535
-126.697
-147.63
-153.253
-140.567
-116.215
-90.396
-68.919
-52.3682
-39.6021
-29.7469
-22.2618
-16.5549
-12.115
-8.73013
-6.22005
-4.35716
-2.95105
-1.87971
-1.0633
-0.441763
0.0313471
0.389512
0.655907
0.844769
0.962291
1.00497
0.958736
0.799052
0.491828
52.3344
53.1521
55.0785
58.1514
62.4098
67.9426
74.8135
82.932
91.9196
100.924
108.438
112.335
110.572
102.633
90.3649
76.7323
63.6752
51.8848
41.6054
32.9635
25.9382
20.3556
15.9843
12.5907
9.96456
7.92041
6.32398
5.08425
4.12995
3.40398
2.85303
2.42036
2.0788
1.7941
1.56725
1.37081
1.1804
0.94193
0.659384
0.294779
51.4669
52.2709
54.1486
57.155
61.3652
66.9224
73.9766
82.5679
92.4783
102.978
112.451
118.032
116.139
106.028
91.1743
75.9344
62.0203
49.7414
39.2878
30.7262
23.9013
18.5661
14.4233
11.2571
8.82845
6.92396
5.42101
4.23814
3.31013
2.60343
2.09527
1.68888
1.3573
1.09464
0.885375
0.714289
0.556238
0.413501
0.236388
0.0373616
49.7691
50.5269
52.2827
55.1178
59.1661
64.6676
71.9384
81.2997
92.9404
106.571
120.361
129.666
127.248
111.957
92.2243
74.439
59.0434
45.8666
35.0797
26.614
20.077
15.3539
11.4792
8.56149
6.37241
4.69015
3.41854
2.45429
1.74688
1.19968
0.744902
0.415948
0.189118
0.0437054
-0.0523321
-0.0956347
-0.0882699
-0.0309703
0.0483981
0.09038
47.2989
47.964
49.4915
51.9889
55.6483
60.8202
68.0376
78.0565
91.9246
110.96
136.091
158.127
158.356
132.224
102.778
80.1621
60.4546
44.6974
32.6518
23.7732
12.3463
9.61229
6.40407
3.79527
1.63936
-0.0450579
-1.2821
-2.15551
-2.80622
-3.29411
-3.65214
-3.8879
-4.0241
-4.0869
-4.07392
-3.96119
-3.72353
-3.30694
-2.62901
-1.51747
44.1637
44.6778
45.846
47.7768
50.6924
55.0063
61.4008
71.0171
85.8128
115.099
156.694
204.108
210.314
139.78
98.7018
72.1054
47.4414
30.2656
18.7968
11.8978
10.0826
-1.97308
-3.26165
-4.65668
-6.13757
-7.37883
-8.14441
-8.64213
-9.00481
-9.27128
-9.45726
-9.57443
-9.59866
-9.52611
-9.38613
-9.09827
-8.58396
-7.68932
-6.1501
-3.53639
40.5376
40.8448
41.5093
42.6168
44.3601
47.0882
51.4249
58.5467
70.8315
105.593
166.412
292.897
390.311
104.511
113.212
58.0028
21.3924
2.61259
-7.46014
-12.5902
-11.3976
-25.9802
-27.396
-31.0399
-32.1081
-31.7675
-31.2096
-30.6177
-29.9788
-29.2997
-28.5958
-27.8597
-27.1268
-26.3813
-25.5372
-24.5323
-23.221
-21.2527
-17.8033
-10.8345
36.6579
36.7111
36.7592
36.8343
37.025
37.4677
38.3987
40.2563
43.9066
68.58
120.451
301.744
1595.93
261.243
-14.4873
-58.4406
-67.772
-69.2022
-67.653
-62.5485
-35.4505
-34.7199
-36.9655
-37.2789
-36.4779
-35.4955
-34.5291
-33.5588
-32.5823
-31.6113
-30.6735
-29.7344
-28.7501
-27.7294
-26.5781
-25.1399
-23.0422
-19.4148
-11.981
32.7994
32.5856
31.9746
30.9361
29.4239
27.3063
24.316
19.9113
12.8966
13.4799
3.67523
-94.7805
-665.869
-657.093
-186.024
-75.4884
-52.0568
-42.5444
-36.5934
-31.147
-28.5946
-31.2155
-27.1431
-23.2622
-20.871
-19.0655
-17.6162
-16.4765
-15.5657
-14.8167
-14.1831
-13.6342
-13.1566
-12.6714
-12.1654
-11.5826
-10.8194
-9.68907
-7.84952
-4.62792
29.2842
28.811
27.5812
25.5094
22.4407
18.0476
11.7534
2.56374
-11.2567
-27.2606
-71.731
-157.311
-281.118
-294.215
-186.801
-108.469
-69.7556
-48.3414
-35.2216
-26.7189
-24.1241
-19.336
-15.2631
-12.0031
-10.0348
-8.72185
-7.7159
-6.93344
-6.33038
-5.85762
-5.47451
-5.15254
-4.87719
-4.61461
-4.34136
-4.0286
-3.63229
-3.0902
-2.31774
-1.20878
26.3851
25.691
23.9655
21.0696
16.7963
10.7335
2.21764
-9.77857
-26.9013
-52.0129
-85.8658
-126.981
-162.921
-168.645
-139.84
-102.454
-73.6308
-54.0068
-40.1486
-29.9958
-22.8257
-18.8338
-15.0884
-11.9379
-9.59329
-7.82759
-6.42679
-5.29943
-4.39873
-3.67932
-3.10031
-2.62843
-2.24228
-1.91418
-1.62417
-1.3544
-1.09042
-0.819602
-0.536774
-0.232435
24.3363
23.4933
21.4187
17.9692
12.9181
5.84698
-3.8514
-16.9568
-34.3755
-56.9325
-84.3264
-113.34
-136.19
-141.436
-126.222
-101.093
-77.2541
-58.7606
-44.7877
-34.0225
-25.79
-19.7355
-15.0553
-11.3324
-8.4728
-6.32121
-4.69042
-3.44407
-2.49196
-1.76669
-1.21327
-0.789309
-0.463478
-0.21145
-0.0162205
0.132354
0.23567
0.286367
0.268371
0.172016
23.2847
22.3573
20.1093
16.3865
10.9625
3.43457
-6.73987
-20.1638
-37.3485
-58.3679
-82.1328
-105.435
-122.711
-127.702
-118.237
-99.3374
-78.7706
-61.1179
-47.0951
-36.02
-27.3188
-20.6432
-15.5785
-11.6848
-8.70613
-6.45363
-4.74823
-3.44455
-2.442
-1.67038
-1.0764
-0.618319
-0.265431
0.00358729
0.20275
0.339023
0.410025
0.405609
0.316774
0.169178
50.2869
50.9547
52.5128
54.9787
58.3654
62.715
68.0363
74.2026
80.8522
87.2634
92.2653
94.3366
92.142
85.4657
75.7063
64.9359
54.5123
44.9329
36.4039
29.0758
22.9923
18.0836
14.2296
11.2829
9.01626
7.23426
5.82723
4.7289
3.88158
3.2323
2.73376
2.34393
2.03563
1.78693
1.58274
1.40125
1.21697
0.998973
0.718444
0.334389
49.4676
50.1219
51.6318
54.0263
57.3457
61.6694
67.0619
73.4777
80.6447
87.8884
93.9071
96.6546
94.0663
85.9159
74.6817
63.1587
52.4519
42.7493
34.2357
27.0481
21.148
16.4115
12.7552
10.0744
8.05179
6.46062
5.20181
4.21205
3.43516
2.8273
2.35369
1.97604
1.67288
1.4294
1.23163
1.06608
0.913762
0.753134
0.547626
0.256259
47.8686
48.4792
49.8729
52.0941
55.2281
59.4182
64.8339
71.5996
79.6737
88.6017
96.9466
101.435
97.6624
85.6187
71.3326
58.7147
47.6062
37.6203
29.0262
21.9499
16.214
11.7842
9.0044
7.04314
5.38855
4.04121
3.03223
2.29567
1.75475
1.34911
1.04264
0.822241
0.670458
0.569803
0.507553
0.482943
0.492845
0.52392
0.534064
0.398587
45.5512
46.0754
47.2592
49.1625
51.9081
55.7124
60.8745
67.7597
76.7697
88.2137
100.302
108.764
102.448
82.5796
64.5303
51.586
40.4178
30.6587
22.5762
15.8465
9.1303
2.88003
2.89626
3.23799
2.55448
1.59323
0.776997
0.130652
-0.396552
-0.824413
-1.15898
-1.40305
-1.56569
-1.66
-1.68424
-1.62177
-1.45392
-1.15426
-0.713728
-0.207247
42.626
43.0165
43.8752
45.2718
47.3353
50.3266
54.6177
60.7637
69.5482
89.7069
111.247
132.286
125.947
83.6532
59.4396
46.1938
31.4255
20.0194
12.0173
6.37434
0.847012
-13.3235
-10.7382
-7.75684
-6.44723
-5.8211
-5.3928
-5.09723
-4.92194
-4.83035
-4.78629
-4.7602
-4.73092
-4.68277
-4.58089
-4.3747
-3.99723
-3.34202
-2.29469
-0.884997
39.2574
39.4673
39.8856
40.5633
41.6158
43.2393
45.7505
49.6766
55.9065
77.722
105.406
150.146
168.119
28.8914
21.0627
4.7141
-4.50355
-9.09349
-12.563
-15.0517
-21.1559
-13.856
-15.0425
-16.7232
-17.1618
-17.0533
-16.8398
-16.6038
-16.345
-16.0663
-15.77
-15.4388
-15.0926
-14.7217
-14.2623
-13.6528
-12.7816
-11.4128
-9.09746
-5.07462
35.6667
35.6581
35.5478
35.3475
35.0995
34.8501
34.6528
34.5718
34.662
48.5764
60.1079
130.976
175.228
-682.717
-128.275
-91.5675
-68.0636
-62.7283
-58.479
-55.0281
-67.0046
-40.5219
-38.2143
-36.0494
-34.1022
-32.2037
-30.5242
-29.0766
-27.7983
-26.6498
-25.6084
-24.6573
-23.7734
-22.8966
-21.9933
-20.9969
-19.7876
-18.077
-15.2298
-9.60457
32.1145
31.8737
31.2032
30.066
28.4141
26.1098
22.8823
18.2217
11.1334
9.26414
-13.0354
-82.0454
-306.215
-257.07
-105.483
-57.8471
-37.8092
-28.8112
-23.4897
-18.9145
-10.9228
4.65348
1.6042
-2.13074
-3.72289
-4.42569
-4.85222
-5.13594
-5.31038
-5.4075
-5.45405
-5.47218
-5.45404
-5.37237
-5.21135
-4.94636
-4.50989
-3.77821
-2.59644
-1.02628
28.8805
28.4182
27.2244
25.2225
22.2908
18.161
12.3678
4.11848
-8.05918
-27.1617
-51.6012
-106.371
-176.606
-187.529
-129.173
-82.186
-55.9025
-39.7825
-29.2529
-21.5159
-11.2835
-2.13891
-2.93989
-4.26272
-4.20698
-3.68847
-3.1935
-2.78513
-2.44773
-2.17275
-1.95217
-1.7729
-1.62458
-1.49145
-1.3419
-1.15418
-0.904208
-0.561569
-0.142261
0.147508
26.2201
25.572
23.9536
21.2617
17.3372
11.8612
4.33759
-5.96576
-20.0906
-39.3768
-64.4973
-93.0897
-117.084
-122.111
-105.154
-80.7787
-60.3233
-45.3621
-34.1576
-25.2517
-17.7454
-12.5459
-9.56826
-7.41681
-5.51595
-3.95043
-2.76034
-1.87112
-1.20218
-0.698228
-0.319319
-0.033552
0.181028
0.347301
0.488397
0.616204
0.735015
0.834571
0.860592
0.638462
24.3426
23.5634
21.6541
18.4998
13.9318
7.63134
-0.851242
-12.0587
-26.5408
-44.6165
-65.7321
-87.5072
-104.247
-108.858
-99.3777
-82.1501
-64.7983
-50.4804
-39.1127
-29.95
-22.5199
-16.7132
-12.2354
-8.90936
-6.40147
-4.4848
-3.02561
-1.91746
-1.07479
-0.433828
0.0523128
0.419602
0.695117
0.899799
1.04836
1.14815
1.19518
1.1691
1.02103
0.646219
23.3809
22.5295
20.4714
17.0875
12.2084
5.52759
-3.35641
-14.8579
-29.2664
-46.467
-65.4474
-83.7239
-97.1867
-101.527
-95.3115
-81.8388
-66.4605
-52.6128
-41.1472
-31.777
-24.1649
-18.1162
-13.4365
-9.88854
-7.18076
-5.08484
-3.46036
-2.20765
-1.24555
-0.508767
0.0530964
0.478609
0.79717
1.02971
1.18931
1.28182
1.30123
1.22835
1.0252
0.62802
48.3749
48.9007
50.1161
52.0236
54.6098
57.8778
61.7925
66.2067
70.7905
74.9626
77.8687
78.5066
76.1057
70.6681
63.157
54.9002
46.7845
39.1749
32.259
26.2018
21.0964
16.9401
13.6598
11.1178
9.11958
7.5146
6.22453
5.19973
4.39334
3.76005
3.26095
2.86363
2.54205
2.2743
2.04059
1.82052
1.58806
1.31078
0.94981
0.45643
47.6004
48.1131
49.2802
51.1145
53.6174
56.8186
60.7142
65.2005
69.9874
74.495
77.7639
78.527
75.7256
69.4588
61.2501
52.7486
44.6546
37.1197
30.3267
24.464
19.5959
15.6979
12.7067
10.4313
8.63163
7.17095
5.99085
5.0444
4.2842
3.67049
3.17319
2.76793
2.43418
2.15398
1.9112
1.68993
1.46798
1.21534
0.888413
0.430895
46.0932
46.5645
47.6183
49.2805
51.5825
54.5903
58.3595
62.8733
67.9419
73.0326
77.0048
77.9867
74.082
65.7646
56.2419
47.6606
39.8921
32.5863
26.0248
20.4814
15.9979
12.614
10.3432
8.56015
6.96243
5.60508
4.54024
3.72744
3.10387
2.62163
2.2488
1.96174
1.74225
1.57466
1.44581
1.34538
1.25809
1.15533
0.977727
0.597247
43.9181
44.3116
45.1718
46.5312
48.4548
51.0432
54.4194
58.6803
63.811