/*--------------------------------*- C++ -*----------------------------------*\
| =========                 |                                                 |
| \\      /  F ield         | OpenFOAM: The Open Source CFD Toolbox           |
|  \\    /   O peration     | Version:  2306                                  |
|   \\  /    A nd           | Website:  www.openfoam.com                      |
|    \\/     M anipulation  |                                                 |
\*---------------------------------------------------------------------------*/
FoamFile
{
    version     2.0;
    format      ascii;
    arch        "LSB;label=32;scalar=64";
    class       surfaceScalarField;
    location    "1.95";
    object      phi;
}
// * * * * * * * * * * * * * * * * * * * * * * * * * * * * * * * * * * * * * //

dimensions      [0 3 -1 0 0 0 0];

oriented        oriented;

internalField   nonuniform List<scalar> 
338621
(
24.9951
0.00214023
0.00148491
24.9874
0.00464592
0.00303964
24.9753
0.00748458
0.00479767
24.958
0.0105336
0.00690452
24.9346
0.0139144
0.00967159
24.9015
0.0200432
0.013263
24.8544
0.029706
0.0177819
24.7908
0.0405107
0.0235236
24.728
0.0325314
0.0306972
24.6839
0.00553905
0.0391777
24.6545
-0.0187606
0.0487944
24.5796
0.016523
0.0590199
24.6076
-0.0968381
0.0694565
24.7382
-0.209026
0.0791043
24.7809
-0.129387
0.0872979
24.8147
-0.126978
0.0936848
24.8452
-0.128569
0.0984235
24.8702
-0.126851
0.102146
24.8912
-0.125873
0.105065
24.9189
-0.135151
0.107535
24.9494
-0.139989
0.1095
24.9725
-0.134408
0.1113
24.9901
-0.130536
0.112982
25.0043
-0.128554
0.114394
25.016
-0.127417
0.115679
25.0256
-0.126471
0.116846
25.0338
-0.126003
0.117816
25.0407
-0.125425
0.118567
25.0464
-0.124872
0.119191
25.0513
-0.124596
0.11966
25.0557
-0.124342
0.119962
25.0597
-0.124127
0.120079
25.0635
-0.123888
0.120134
25.067
-0.123635
0.120118
25.0704
-0.123399
0.120003
25.0741
-0.1235
0.119829
25.0779
-0.123453
0.119563
25.0821
-0.123462
0.119292
25.0867
-0.123589
0.118984
-0.12411
0.118413
24.995
0.00427642
0.00145175
24.9873
0.00944988
0.00293713
24.9747
0.0155218
0.00466438
24.9573
0.0213483
0.0067402
24.9338
0.0280764
0.00946923
24.904
0.0371882
0.0129361
24.8678
0.0486839
0.0174839
24.8214
0.0639939
0.0232919
24.756
0.0677678
0.0306245
24.6802
0.0422691
0.0395135
24.6361
-0.0240276
0.0499008
24.6217
-0.0295632
0.0610121
24.6597
-0.207387
0.0730447
24.744
-0.376843
0.0840135
24.8254
-0.303406
0.0930047
24.8955
-0.296469
0.0998005
24.9496
-0.28721
0.104765
24.9935
-0.279146
0.108569
25.0399
-0.283748
0.111591
25.0748
-0.284062
0.113999
25.0958
-0.276963
0.116042
25.1106
-0.266998
0.1178
25.1205
-0.259936
0.119459
25.1281
-0.256969
0.120842
25.1335
-0.254898
0.122043
25.1375
-0.253531
0.123058
25.1398
-0.252251
0.123941
25.1415
-0.251767
0.124636
25.1429
-0.251443
0.125183
25.1437
-0.250928
0.125584
25.1442
-0.250686
0.125847
25.1443
-0.250212
0.125988
25.1446
-0.250262
0.126048
25.145
-0.250071
0.126035
25.1456
-0.249937
0.125951
25.1464
-0.250158
0.125851
25.1475
-0.250276
0.125647
25.1492
-0.250568
0.125451
25.1517
-0.251281
0.125168
-0.251547
0.124656
24.9953
0.00610602
0.00137352
24.9877
0.0143806
0.00277679
24.9757
0.0231907
0.00437902
24.9577
0.0331042
0.00642083
24.9331
0.0437338
0.0090392
24.9016
0.0564873
0.0124315
24.8612
0.0723814
0.0169852
24.8113
0.0912983
0.0228767
24.7414
0.107429
0.0305724
24.6422
0.101422
0.040371
24.5639
0.00576489
0.0523539
-0.00558428
0.00626773
-0.00416181
24.6589
-0.0383078
0.0662458
-0.0581168
-0.0369838
-0.0571153
24.5505
-0.0109838
0.0795734
-0.0954877
0.0219578
-0.0937976
24.7236
-0.182538
0.0924166
-0.124596
-0.212237
-0.122806
24.8187
-0.129826
0.102064
-0.122643
-0.127599
-0.120217
24.8817
-0.119232
0.108966
-0.117328
-0.116658
-0.11505
24.9378
-0.115391
0.113891
-0.115547
-0.113363
-0.112792
25.0052
-0.117766
0.117666
-0.116626
-0.115539
-0.114359
25.0494
-0.113997
0.12069
-0.112517
-0.111784
-0.110374
25.0758
-0.110052
0.123047
-0.10897
-0.107828
-0.106726
25.0946
-0.420915
0.125087
25.1092
-0.408417
0.126841
25.1181
-0.397363
0.128459
25.1247
-0.393429
0.129891
25.1297
-0.391017
0.131153
25.1329
-0.388979
0.132174
25.1347
-0.386951
0.132946
25.1358
-0.386338
0.133486
25.1357
-0.385168
0.133818
25.1356
-0.384839
0.133975
25.135
-0.384043
0.133988
25.1344
-0.383528
0.133895
25.1335
-0.383074
0.133683
25.1329
-0.382936
0.133526
25.1321
-0.38242
0.133274
25.1315
-0.382591
0.133062
25.1314
-0.383012
0.13278
25.1318
-0.383514
0.132514
25.1326
-0.384225
0.132171
-0.384991
0.131638
24.9956
0.00824759
0.00125426
24.9889
0.0186279
0.00253758
24.9771
0.0310555
0.00398375
24.9602
0.0442203
0.00590269
24.9355
0.0602501
0.00833112
24.9008
0.079788
0.0115668
24.8547
0.102633
0.015954
24.7959
0.128566
0.0217977
24.7284
0.145458
0.029701
6.14045
0.0373613
0.0403216
0.0547954
0.0388254
0.0552411
6.16256
6.13973
6.16072
6.12264
0.0176999
0.00588333
-6.10925
6.09677
-0.0335381
0.00772135
-6.10039
6.12163
-0.0418707
0.00964771
-6.11376
6.14066
-0.221113
0.011681
-6.15951
6.17405
-0.157576
0.013222
-6.18767
6.19877
-0.144512
0.0141836
-6.21051
6.22524
-0.145016
0.0148952
-6.2376
6.24519
-0.140821
0.0154623
-6.25132
6.25681
-0.135405
0.0159118
-6.26144
6.2656
-0.130532
0.0163082
25.1062
-0.144332
0.136533
-0.145383
-0.142261
-0.144138
-6.2693
-6.27403
-6.26986
-6.27438
25.1134
-0.554597
0.138871
25.1166
-0.540529
0.140028
25.1192
-0.536956
0.140929
25.1193
-0.533126
0.141944
25.1175
-0.529995
0.142867
25.115
-0.528053
0.143559
25.1112
-0.526503
0.143985
25.1065
-0.524589
0.144142
25.101
-0.523486
0.144058
25.0954
-0.522157
0.143772
25.0893
-0.520821
0.143342
25.0829
-0.51945
0.142785
25.0765
-0.518866
0.142306
25.0703
-0.517884
0.141741
25.0638
-0.517393
0.141239
25.0576
-0.517409
0.140679
25.0515
-0.517513
0.140067
25.0467
-0.518782
0.139371
-0.519177
0.138421
24.9973
0.00874902
0.00109359
24.9913
0.0223974
0.0022141
24.9815
0.0374254
0.00347261
24.966
0.0546344
0.00516304
24.9431
0.0760237
0.00730577
24.9094
0.103349
0.0101771
24.8591
0.138974
0.0140721
24.7844
0.184039
0.0194416
6.17074
0.23498
0.026756
6.16343
6.1706
6.16345
6.15449
0.0496374
0.00398588
6.1285
0.00556452
-6.15681
0.0204947
0.0120732
0.0119356
0.0205526
-0.0423096
-6.0752
6.04032
0.00754903
-0.00167164
0.00449454
0.00420728
-0.00158403
0.0218706
-6.03922
6.05702
0.00988017
0.0293215
-0.039929
-0.0400722
-0.0189496
0.0419092
-6.10917
6.1345
0.0126425
-0.0522549
-0.0668785
-0.104744
-0.0527125
0.238578
-6.16732
6.17987
0.0142243
-0.051326
-0.0551424
-0.0544633
-0.0516971
0.185845
-6.19219
6.20624
0.0150208
-0.0517306
-0.0509392
-0.0508919
-0.0517589
0.176242
-6.22042
6.23276
0.0156251
-0.0498107
-0.0497754
-0.0497124
-0.0499217
0.171239
-6.24286
6.2505
0.0162193
-0.0470434
-0.0470211
-0.0468662
-0.0472213
0.164264
-6.25721
6.26205
0.0168304
-0.0444862
-0.0447279
-0.0445645
-0.0446498
0.156746
-6.2663
6.26851
0.0174681
-0.0423417
-0.0427312
-0.0426191
-0.0424383
0.150447
-6.27158
6.27338
-0.16459
0.0184578
25.0511
-0.666697
0.143935
-6.27318
-6.26643
-6.27448
-6.26886
25.025
-0.65859
0.144107
24.9969
-0.651736
0.142915
24.9681
-0.645978
0.141622
24.9402
-0.64235
0.140289
24.913
-0.639675
0.138802
24.8866
-0.637227
0.137079
24.8619
-0.634935
0.135102
24.838
-0.632484
0.132886
24.8154
-0.630086
0.130505
24.7942
-0.627696
0.128056
24.7744
-0.625216
0.125612
24.7552
-0.62301
0.123369
24.7372
-0.621168
0.121262
24.72
-0.61959
0.11934
24.7037
-0.61864
0.117525
24.6888
-0.618323
0.115717
24.6754
-0.61917
0.113833
-0.621936
0.111682
24.9999
0.00731215
0.000895695
24.9965
0.0239654
0.00182157
24.9889
0.0421772
0.00286061
24.9771
0.0623004
0.00418546
24.9594
0.0878343
0.00592812
24.9323
0.122386
0.00820971
24.889
0.17107
0.0112448
24.8164
0.241261
0.0154514
6.17051
0.349289
0.0210588
6.17011
6.17049
6.16996
-0.0657186
6.14477
0.0883285
0.00312964
-0.0198947
-1.52748
1.5223
0.0244975
0.000584022
-0.0199405
-1.5039
1.49168
0.0314389
0.000725346
-1.4677
0.0517185
1.47743
-0.0625885
0.00112993
-1.52861
0.0846457
1.53724
-0.0946222
0.00133916
-1.53568
0.0620479
-0.0659036
0.00167032
1.53786
-1.54742
0.060073
-0.0642778
0.0015893
1.55003
0.0574793
-1.55597
1.55749
-0.0606667
0.00166747
0.0533412
-1.5606
1.56119
-0.0558144
0.00188387
0.0504017
-1.56189
1.56196
-0.0526278
0.00214898
0.0477977
-1.56123
1.56078
-0.0497224
0.00237406
-1.55384
0.181311
6.15424
-0.177009
0.0213123
-1.53736
-1.5534
-1.53526
23.8266
-0.766452
0.0730955
-6.09579
-5.80598
-6.10385
-5.79431
23.8429
-0.746471
0.071602
23.8552
-0.734248
0.0702005
23.8659
-0.725245
0.0684846
23.8755
-0.718498
0.0665821
23.8844
-0.712988
0.0644489
23.8932
-0.708132
0.0620465
23.9024
-0.703541
0.0594073
23.9124
-0.699051
0.0566198
23.9231
-0.694567
0.0537987
23.9344
-0.690074
0.0510532
23.9465
-0.685774
0.0484433
23.9591
-0.681643
0.0460808
23.9717
-0.677772
0.0439143
23.9847
-0.674455
0.0419166
23.9976
-0.671536
0.0400071
24.0103
-0.669104
0.0380531
24.0224
-0.667124
0.0358867
-0.665052
0.0333814
25.003
0.00343325
0.00068353
25.0035
0.0220796
0.00136867
25.0006
0.0429357
0.00214766
24.9949
0.0649551
0.00306668
24.9862
0.0923861
0.00424497
24.9726
0.130141
0.00576695
24.9531
0.183012
0.0076393
24.9222
0.262098
0.0100072
6.21342
0.389233
0.0127437
6.22156
6.21316
6.22141
-0.106678
6.1981
0.120191
0.00180542
-0.0396466
-1.54215
1.53602
0.0454752
0.0003026
-0.0830434
-1.50668
1.48818
0.101229
0.000312856
0.00431895
-0.0746039
0.0747768
-0.00454045
4.84978e-05
-0.0213762
0.000449523
0.0208884
2.38969e-06
3.58401e-05
-0.198349
0.00871598
-0.0194307
-0.00268164
0.211745
-1.16486
0.0541099
-0.0741605
-0.00210782
1.18702
0.0499782
-1.23647
1.2482
-0.0588529
-0.00285246
0.0504965
-1.28391
1.29556
-0.0590476
-0.00310277
0.0495746
-1.32585
1.33508
-0.0557773
-0.0030283
0.0491179
-1.35856
1.36655
-0.0544533
-0.00265746
-1.40719
0.209207
5.86286
-0.222441
-0.0201627
-1.5005
-1.41912
-1.50265
24.1621
-0.683734
-0.112296
-5.9081
-6.17847
-5.87097
-6.17496
24.185
-0.658235
-0.111103
24.2063
-0.646598
-0.108952
24.2265
-0.638585
-0.106917
24.2452
-0.632022
-0.105115
24.2624
-0.626839
-0.103359
24.2786
-0.622681
-0.101649
24.294
-0.619032
-0.099911
24.3088
-0.615711
-0.0982125
24.3234
-0.61255
-0.0965905
24.3379
-0.609482
-0.0951109
24.3525
-0.606601
-0.0937403
24.3673
-0.603862
-0.0925829
24.3824
-0.601289
-0.0915533
24.3975
-0.598851
-0.0907227
24.4129
-0.596766
-0.0901239
24.4282
-0.594709
-0.0897819
24.4433
-0.592402
-0.089805
-0.58897
-0.090295
25.0047
-0.00142156
0.000448729
25.0099
0.0159563
0.000903454
25.0148
0.0366607
0.00138167
25.0187
0.059082
0.00191677
25.0207
0.0879452
0.00248467
25.0259
0.121782
0.0031391
25.0382
0.166852
0.00372512
25.0648
0.23145
0.00404203
6.27479
0.332798
0.00371336
6.28255
6.27518
6.28491
-0.112075
6.28276
0.103741
0.00036212
-0.044754
-1.57819
1.57995
0.0429871
5.14048e-06
-0.084239
-1.59881
1.61394
-0.000186661
0.0692975
-0.0256444
-1.71375
1.75212
-0.000914859
0.0554805
-0.0208097
-0.0257151
-0.0207576
0.0996109
-1.71305
1.68392
-0.00134209
-0.0691314
0.102477
-1.61004
-0.00134866
1.59944
-0.0905166
0.0782797
-1.58483
-0.00151593
1.58188
-0.073815
0.0570777
-1.5772
1.57627
-0.0544193
-0.00172279
0.0578232
-1.57453
1.57273
-0.0541313
-0.00189579
0.052259
-1.57235
1.5717
-0.0495827
-0.0020303
0.048702
-1.57077
1.57029
-0.0460974
-0.00212027
-1.56802
0.182946
6.26618
-0.161049
-0.0173197
-1.56751
-1.56768
-1.56755
25.0723
-0.547833
-0.128878
-6.26954
-6.26936
-6.27085
-6.26953
25.072
-0.529815
-0.128092
25.0682
-0.516069
-0.126797
25.0639
-0.508524
-0.12577
25.0603
-0.503187
-0.125158
25.0574
-0.499139
-0.124795
25.0551
-0.495796
-0.124656
25.0533
-0.492611
-0.124575
25.0523
-0.49016
-0.124516
25.0517
-0.487543
-0.124428
25.0514
-0.484819
-0.124343
25.0515
-0.482643
-0.124113
25.0519
-0.480337
-0.123931
25.0522
-0.477848
-0.123699
25.0529
-0.476022
-0.123565
25.0538
-0.474077
-0.123577
25.055
-0.472087
-0.123781
25.0566
-0.469746
-0.124263
-0.467206
-0.12494
25.0057
-0.00633364
0.000213908
25.014
0.00715918
0.000452853
25.0269
0.0230756
0.000656392
25.0381
0.0469751
0.000805503
25.0535
0.0716859
0.000847881
25.0771
0.0974221
0.000677146
25.1153
0.128423
0.000123711
25.179
0.168809
-0.00127172
6.32088
0.231237
-0.00401078
6.31897
6.32523
6.31937
-0.0888524
6.33714
0.0734091
-0.000822863
-0.0332422
6.41406
0.087968
-0.00178378
-0.0344304
-0.0334599
-0.034141
-6.36497
-0.0332743
6.5182
0.075591
-0.00367244
-0.0259491
-0.0332944
-0.0260162
-6.47158
-0.00691458
-6.54869
6.51462
-0.00640946
-0.00659252
0.0155024
-0.00725687
0.0457654
0.0456362
-6.53646
6.51486
-0.123889
-0.00965224
0.0394186
0.0363436
0.0337655
0.0553158
-6.45028
6.41252
-0.177936
-0.0119313
0.0558876
0.0576894
0.0587397
0.0565477
-6.37252
6.34042
-0.175677
-0.0134932
0.0552414
0.0555683
0.0539021
0.04665
-6.32248
6.31148
-0.157057
-0.0145904
0.0456908
0.0454956
0.0448136
0.0445481
-6.30302
6.29733
-0.15579
-0.0152853
0.0443023
0.0440822
0.0438498
0.0415098
-6.29301
6.28772
-0.142885
-0.0156541
0.0410048
0.0409792
0.0403514
0.0385904
-6.28349
6.27806
-0.130933
-0.015834
0.0381237
0.0380487
0.0374475
0.143174
-6.27647
6.27443
-0.125089
-0.0160411
25.0742
-0.406882
-0.129043
-6.27173
-6.27163
-6.27182
-6.27085
25.0646
-0.391793
-0.128491
25.0591
-0.382608
-0.127919
25.0549
-0.376727
-0.127573
25.0519
-0.372839
-0.127321
25.0496
-0.369843
-0.127056
25.0482
-0.367607
-0.126754
25.0476
-0.365662
-0.126405
25.0474
-0.36389
-0.126006
25.0476
-0.362175
-0.125564
25.0481
-0.360241
-0.125126
25.0489
-0.358809
-0.12465
25.0496
-0.356861
-0.124155
25.051
-0.355514
-0.123746
25.0523
-0.353874
-0.123439
25.0536
-0.352084
-0.123252
25.0555
-0.350782
-0.12326
25.0586
-0.349292
-0.123536
-0.348029
-0.124132
25.0062
-0.01119
5.99102e-05
25.0159
-0.00266617
9.77659e-05
25.0247
0.0142255
5.1977e-05
25.0411
0.0305389
-9.465e-05
25.0677
0.0454642
-0.000500592
25.1013
0.0650153
-0.00130152
25.1491
0.0831847
-0.00273055
25.216
0.106936
-0.00525597
25.3255
0.130998
-0.00954597
25.4314
0.145066
-0.0165083
-0.0611222
-0.0568606
-0.0589805
-0.0578536
25.5807
0.132805
-0.0270491
-0.0606447
-0.0640719
-0.0624647
-0.0681676
25.7159
0.0546945
-0.0419008
-0.041809
-0.0277559
-0.0463264
-0.0322386
25.5944
-0.156979
-0.0596521
0.0217481
0.124787
0.0195787
0.171836
25.5024
-0.238724
-0.0783366
0.083877
0.117539
0.0991234
0.108261
25.4339
-0.249273
-0.0937987
0.08345
0.148826
0.0319681
0.147124
25.3484
-0.352643
-0.105003
0.135521
0.13831
0.133755
0.135277
25.2649
-0.321422
-0.111955
0.128908
0.13238
0.126318
0.129172
25.1993
-0.330585
-0.11619
0.131603
0.128466
0.128008
0.124303
25.1564
-0.308958
-0.118741
0.121336
0.118155
0.117588
0.113593
25.1324
-0.289825
-0.120334
0.110694
0.11052
0.105666
0.107285
25.1126
-0.275672
-0.121405
0.106181
0.1056
0.103181
0.10196
25.0943
-0.266449
-0.122064
25.0827
-0.257922
-0.122348
25.0749
-0.252114
-0.122643
25.069
-0.247755
-0.123056
25.0643
-0.244761
-0.123403
25.0612
-0.242956
-0.123729
25.0584
-0.240794
-0.124005
25.0565
-0.239598
-0.124213
25.055
-0.238022
-0.124346
25.0542
-0.236993
-0.124393
25.0541
-0.235746
-0.12437
25.0538
-0.234235
-0.124296
25.0543
-0.233218
-0.124109
25.0545
-0.231723
-0.123986
25.055
-0.230511
-0.123871
25.0563
-0.229542
-0.123838
25.058
-0.228572
-0.123948
25.0598
-0.226803
-0.124266
-0.225429
-0.124834
25.0065
-0.0157391
-7.87823e-05
25.0094
-0.00548074
-0.000161651
25.0169
0.0070067
-0.000369726
25.0363
0.0117435
-0.000710848
25.0617
0.0213149
-0.00140382
25.0912
0.0379941
-0.0026216
25.1393
0.039322
-0.00458704
25.201
0.0525907
-0.00769593
25.281
0.0632723
-0.0125846
25.3778
0.0675869
-0.0198139
25.4859
0.0542098
-0.0299392
25.5669
0.016552
-0.0433836
25.5451
-0.0767273
-0.0589123
25.5312
-0.150683
-0.0745855
25.4087
-0.0392094
-0.0880388
25.3264
-0.172417
-0.0983771
25.2766
-0.166726
-0.105173
25.2154
-0.159784
-0.109715
25.1705
-0.151578
-0.112585
25.1384
-0.143172
-0.114517
25.1144
-0.135858
-0.115904
25.0954
-0.130595
-0.11685
25.0815
-0.126407
-0.117618
25.0712
-0.123541
-0.118236
25.0637
-0.121388
-0.118819
25.0582
-0.120045
-0.119227
25.0536
-0.118831
-0.119576
25.0508
-0.118082
-0.119835
25.0488
-0.117693
-0.119921
25.0475
-0.116855
-0.119905
25.0468
-0.116537
-0.119771
25.0464
-0.115725
-0.119544
25.0467
-0.115392
-0.119206
25.0469
-0.114608
-0.118834
25.0479
-0.114217
-0.118472
25.0489
-0.113375
-0.118128
25.0503
-0.113048
-0.117854
25.0519
-0.112498
-0.117715
25.0547
-0.111784
-0.117792
-0.112062
-0.118178
24.9867
-0.000135607
24.9814
-0.000243114
24.9889
-0.000538984
25.0014
-0.000910547
25.0243
-0.0017596
25.0652
-0.0031013
25.1094
-0.00523859
25.1701
-0.00857393
25.2465
-0.0136459
25.3343
-0.0208055
25.4183
-0.0304286
25.4769
-0.0426617
25.4559
-0.056488
25.375
-0.0703919
25.4178
-0.0826432
25.3375
-0.0926227
25.2699
-0.0994302
25.2138
-0.103891
25.1689
-0.106845
25.1346
-0.108894
25.1091
-0.110423
25.0901
-0.111569
25.0761
-0.112488
25.0658
-0.11321
25.0583
-0.113912
25.0528
-0.114478
25.0489
-0.114959
25.0462
-0.115393
25.0441
-0.115592
25.043
-0.115706
25.0422
-0.115719
25.042
-0.115574
25.0419
-0.115314
25.0423
-0.115016
25.0429
-0.114755
25.044
-0.114489
25.0452
-0.114273
25.0469
-0.11418
25.0494
-0.114293
-0.114718
24.9959
0.00120736
0.00280588
24.9894
0.00398155
0.00571508
24.9788
0.0066277
0.00906678
24.963
0.00992087
0.0131764
24.9418
0.0130263
0.0183973
24.9125
0.0181408
0.0251772
24.8704
0.0269281
0.0339219
24.8126
0.0375231
0.0450531
24.7562
0.0298019
0.0588677
24.7186
0.00280973
0.0756486
24.692
-0.0173848
0.0946481
24.6282
0.00956408
0.115268
24.6562
-0.0926562
0.136065
24.7748
-0.193146
0.155633
24.8094
-0.117646
0.172146
24.8358
-0.11613
0.184929
24.8608
-0.119829
0.194442
24.881
-0.118862
0.201664
24.8978
-0.118575
0.207267
24.9246
-0.130773
0.211772
24.9512
-0.132292
0.215409
24.9716
-0.127599
0.218577
24.9876
-0.124442
0.221412
25.001
-0.122883
0.223964
25.012
-0.121645
0.226255
25.0217
-0.121117
0.228277
25.03
-0.120471
0.230018
25.037
-0.11995
0.231458
25.0433
-0.119759
0.232631
25.0491
-0.119618
0.23356
25.054
-0.119246
0.234242
25.0583
-0.11888
0.234706
25.0625
-0.119023
0.234958
25.0666
-0.119151
0.235108
25.0703
-0.118775
0.235079
25.0741
-0.118971
0.234994
25.0779
-0.118935
0.234693
25.0819
-0.119027
0.234359
25.0865
-0.119442
0.233789
-0.119791
0.232448
24.9959
0.00248482
0.00273349
24.9894
0.0080063
0.00556875
24.9783
0.0138761
0.00884808
24.9625
0.0199351
0.0128946
24.9408
0.0266217
0.0180614
24.9133
0.0344921
0.0248181
24.8801
0.0448963
0.0336073
24.8371
0.0599093
0.044964
24.7736
0.0658494
0.0593746
24.6966
0.043498
0.0772004
24.6518
-0.0192302
0.0980517
24.5882
0.014451
0.1212
24.623
-0.19754
0.14467
24.7562
-0.407565
0.166599
24.8394
-0.290956
0.184514
24.9098
-0.283769
0.198057
24.962
-0.274557
0.208072
25.0034
-0.266655
0.215521
25.0489
-0.273564
0.221286
25.081
-0.274519
0.225771
25.0996
-0.264167
0.229378
25.1126
-0.255309
0.232478
25.1213
-0.248907
0.23527
25.1278
-0.246256
0.237736
25.133
-0.244724
0.239904
25.1365
-0.243338
0.241791
25.1388
-0.242266
0.243426
25.1409
-0.242248
0.244812
25.1423
-0.241931
0.245965
25.1431
-0.241721
0.246894
25.1439
-0.241822
0.247611
25.1448
-0.24195
0.248132
25.1451
-0.24184
0.248527
25.1455
-0.242216
0.24876
25.1464
-0.242614
0.248873
25.1469
-0.24256
0.248868
25.148
-0.243113
0.248732
25.1498
-0.243813
0.248455
25.1517
-0.24417
0.247996
-0.245105
0.246717
24.996
0.00384855
0.00258686
24.9896
0.0120156
0.0052766
24.9786
0.0211413
0.0084054
24.9622
0.030763
0.0122973
24.9394
0.0415543
0.0173193
24.9095
0.0535091
0.0239696
24.8713
0.0679943
0.0327948
24.8244
0.0860533
0.0444894
24.7581
0.103838
0.0598541
24.6622
0.101142
0.0795994
24.582
0.00659596
0.10394
-0.00298277
0.00746218
-0.000651163
24.7129
-0.0361443
0.131529
-0.056744
-0.0339357
-0.054028
24.57
0.0231208
0.159611
-0.093746
0.0264438
-0.0898356
24.734
-0.213419
0.185779
-0.123257
-0.209127
-0.118397
24.8279
-0.128037
0.205262
-0.120776
-0.123138
-0.115302
24.8907
-0.117509
0.219133
-0.115896
-0.112514
-0.11022
24.946
-0.114403
0.229175
-0.11358
-0.109051
-0.107863
25.0117
-0.116248
0.236569
-0.114968
-0.110807
-0.109291
25.054
-0.112566
0.242196
-0.111247
-0.107312
-0.106505
25.08
-0.109121
0.246454
-0.107587
-0.104652
-0.102764
25.0986
-0.407473
0.249665
25.1116
-0.394016
0.252564
25.12
-0.384183
0.255222
25.1261
-0.38074
0.258252
25.1306
-0.378681
0.26068
25.1334
-0.376919
0.262921
25.1353
-0.375451
0.264253
25.1358
-0.374739
0.265478
25.1356
-0.374338
0.266383
25.1357
-0.374912
0.267023
25.1348
-0.37437
0.26744
25.134
-0.374946
0.267687
25.1338
-0.375486
0.267568
25.1329
-0.375686
0.26786
25.132
-0.376272
0.267822
25.1316
-0.376834
0.267717
25.1314
-0.377639
0.267513
25.1315
-0.378563
0.267161
25.1326
-0.379676
0.266629
-0.380772
0.265277
24.9969
0.00493871
0.00236394
24.9907
0.0159871
0.00483082
24.9799
0.0284819
0.00771298
24.9637
0.0418102
0.0113274
24.9407
0.0571673
0.0160473
24.9076
0.0762632
0.0223824
24.8626
0.0984629
0.0310079
24.8042
0.124127
0.0427687
24.7358
0.143737
0.058867
6.14226
0.0386763
0.08081
0.0544467
0.039353
0.0552232
6.16233
6.14265
6.16213
-0.0116666
6.12478
0.0180739
0.0177161
-0.0154359
-6.11228
6.0999
-0.0317182
0.0234094
-0.0194034
-6.10335
6.09573
0.0206868
0.029435
-0.0234599
-6.11086
6.14301
-0.257659
0.0355212
-0.02655
-6.16127
6.17567
-0.156002
0.0401158
-0.0285764
-6.1893
6.20066
-0.143405
0.0431202
-0.029988
-6.21213
6.22685
-0.144417
0.045265
-0.0310466
-6.24003
6.24749
-0.139571
0.0468695
-0.0318698
-6.25359
6.259
-0.134199
0.0480516
-0.0325364
-6.26297
6.26716
-0.129809
0.0489944
25.1119
-0.142348
0.276861
-0.142358
-0.141958
-0.140282
-6.27127
-6.27539
-6.27106
-6.27522
25.1189
-0.541945
0.279621
25.1222
-0.529175
0.281688
25.1243
-0.526989
0.285024
25.1242
-0.524413
0.287841
25.1216
-0.521942
0.290476
25.1182
-0.520564
0.292013
25.1136
-0.519383
0.293222
25.108
-0.518535
0.293914
25.1015
-0.518488
0.294181
25.095
-0.518187
0.294119
25.0881
-0.518539
0.293829
25.0809
-0.518638
0.29312
25.0739
-0.519222
0.292857
25.0669
-0.519753
0.292203
25.0603
-0.520578
0.291605
25.0534
-0.520957
0.290805
25.0471
-0.522009
0.289816
25.0423
-0.523905
0.288486
-0.525014
0.286094
24.9985
0.00450046
0.00206166
24.9935
0.0191278
0.00422248
24.984
0.034829
0.0067486
24.9693
0.0518915
0.00992949
24.9472
0.0727941
0.0141113
24.9149
0.0995591
0.0195195
24.8658
0.134372
0.0275984
24.7926
0.178752
0.0384831
6.17323
0.229914
0.0539343
6.166
6.17396
6.16637
-0.00792356
6.15791
0.0498671
0.0120812
-0.0111406
6.13162
0.0170543
-6.16067
0.0204986
0.0116603
0.0205054
0.011565
-0.0411021
-0.015219
-6.07809
6.04393
0.0234392
-0.00154445
0.00386104
-0.00180135
0.00407618
0.0212445
-0.0200762
-6.04178
6.05503
0.0309113
0.0521984
-0.0403394
0.0516762
-0.0399403
-0.047922
-0.0253175
-6.09515
6.13604
0.0385172
-0.0514911
-0.129419
-0.0521648
-0.12886
0.307617
-0.0284491
-6.16676
6.1784
0.0429397
-0.0507712
-0.0543778
-0.0515155
-0.0536455
0.184085
-0.0301203
-6.19251
6.20752
0.045391
-0.0515846
-0.0515716
-0.0523669
-0.0508333
0.176047
-0.0313263
-6.22217
6.23474
0.0470788
-0.04937
-0.0502974
-0.050222
-0.0494924
0.170964
-0.0323384
-6.24489
6.25245
0.0483205
-0.0461162
-0.0470697
-0.0471035
-0.0463057
0.162932
-0.0332254
-6.25922
6.26382
0.0492978
-0.0436904
-0.0443642
-0.0441541
-0.0438345
0.155278
-0.0340307
-6.26821
6.27067
0.0500952
-0.0417644
-0.0420389
-0.0416363
-0.0418484
0.148717
-6.27356
-0.035046
6.27563
-0.159976
0.0505838
25.0652
-0.649449
0.285836
-6.27706
-6.27308
-6.27783
-6.27169
25.0382
-0.645481
0.287385
25.0086
-0.64308
0.28853
24.9782
-0.640889
0.288484
24.9487
-0.639782
0.287673
24.9195
-0.638811
0.2862
24.8915
-0.63764
0.28338
24.8645
-0.636575
0.28012
24.8382
-0.635657
0.276359
24.8132
-0.635053
0.272294
24.7897
-0.634799
0.267891
24.7673
-0.634763
0.264067
24.7461
-0.634761
0.260118
24.7264
-0.635147
0.256424
24.7076
-0.63548
0.252967
24.6906
-0.635998
0.249587
24.6751
-0.63687
0.246078
24.6615
-0.638681
0.242203
-0.642324
0.237299
25.0021
0.000940655
0.00172371
24.9999
0.0197841
0.00347872
24.9922
0.0399176
0.00553707
24.9802
0.0601231
0.0081159
24.9627
0.0848936
0.0114833
24.9367
0.118455
0.0155119
24.8943
0.165999
0.0222415
24.8227
0.23509
0.0308715
6.17237
0.342281
0.043342
6.17153
6.17264
6.17166
-0.00618862
-0.0648954
6.14674
0.0870601
0.00965324
-0.00200036
-0.0195194
-1.52786
1.52257
0.024143
0.00265738
-0.00290314
-0.0189802
-1.50401
1.49141
0.0307226
0.00372917
-0.00427975
-1.46869
0.0523559
1.47861
-0.063501
0.00544499
-0.00610265
-1.52777
0.153805
1.53916
-0.166779
0.00763116
-0.00714759
-1.53529
0.0610002
-0.0649082
1.53719
0.00912419
-1.54687
-0.00732995
0.061346
-0.0668027
0.00980751
1.54984
-0.00768177
0.0585532
-1.55615
1.55777
-0.0627911
0.0102935
-0.0082279
0.0534266
-1.56123
1.56193
-0.0564281
0.0105162
-0.00879598
0.0493394
-1.56312
1.5634
-0.0512337
0.0104074
-0.00923931
0.0456401
-1.56348
1.56336
-0.0463167
0.0100415
-1.55905
-0.0358157
0.166712
6.1827
-0.142548
0.0366522
-1.54515
-1.55878
-1.54472
23.8418
-0.748077
0.14215
-6.1182
-5.80692
-6.09718
-5.78999
23.8551
-0.733574
0.146435
23.8654
-0.731214
0.148044
23.8748
-0.728745
0.146896
23.8837
-0.726213
0.144107
23.8923
-0.723239
0.140316
23.9014
-0.719894
0.135129
23.9111
-0.716413
0.129585
23.9214
-0.713064
0.123761
23.9321
-0.709944
0.117901
23.9435
-0.707104
0.111967
23.9551
-0.704639
0.106802
23.967
-0.702426
0.101752
23.9792
-0.700458
0.0970948
23.9916
-0.698698
0.0927326
24.0042
-0.697124
0.0885157
24.0169
-0.695724
0.0841585
24.0295
-0.694483
0.0791693
-0.693278
0.0726023
25.009
-0.000289282
0.00129735
25.0097
0.0178778
0.00262618
25.0062
0.0413922
0.00414079
24.9994
0.0640599
0.00598207
24.9894
0.0908573
0.00830175
24.9759
0.127016
0.0107958
24.9565
0.177903
0.0151845
24.9262
0.255193
0.020187
6.21383
0.381748
0.0268809
6.22221
6.21392
6.22266
-0.0036149
-0.10516
6.19841
0.118501
0.00569434
-0.00108022
-0.0394172
-1.54201
1.53589
0.0451789
0.00144308
-0.00130247
-0.0821925
-1.50592
1.4875
0.100167
0.00173753
-0.000164323
0.00448779
-0.0747984
0.0750271
-0.00473359
0.000180827
-0.000156364
-0.225556
0.0162149
-0.0279679
-0.00295948
0.240427
-1.25595
0.00857295
0.079315
-0.0949426
-0.0114602
1.27447
0.0106823
0.0688508
-1.30495
1.30732
-0.071591
-0.0103151
0.0112542
0.0625583
-1.31165
1.31285
-0.0662712
-0.00874545
0.0109857
0.0524394
-1.31287
1.31294
-0.0561494
-0.00734346
0.0100418
0.0437833
-1.31305
1.31532
-0.049874
-0.00621467
-1.35375
0.0303559
0.164887
5.72124
-0.204516
-0.0350378
-1.48366
-1.35856
-1.48096
24.0742
-0.680649
-0.232305
-5.80223
-6.16472
-5.88684
-6.16783
24.1167
-0.657153
-0.229998
24.1538
-0.651011
-0.226253
24.1874
-0.646811
-0.222472
24.2175
-0.643007
-0.218385
24.2448
-0.639827
-0.214051
24.2702
-0.637233
-0.209673
24.2941
-0.634893
-0.205417
24.317
-0.632721
-0.201397
24.3387
-0.630595
-0.197667
24.3594
-0.628652
-0.194277
24.3792
-0.626984
-0.191201
24.3982
-0.625483
-0.188517
24.4162
-0.62383
-0.18616
24.4332
-0.622193
-0.18418
24.4491
-0.620563
-0.182647
24.4643
-0.618894
-0.181783
24.4785
-0.616691
-0.181842
-0.612801
-0.18318
25.0082
-0.00519526
0.000859967
25.0151
0.0101176
0.0017412
25.0216
0.0335435
0.00268091
25.0254
0.0584553
0.00373055
25.0246
0.0891341
0.00490897
25.029
0.119709
0.00593995
25.0411
0.161904
0.00745577
25.0698
0.222004
0.00837199
6.27631
0.312056
0.00836749
6.28849
6.27788
6.29197
-0.000804745
-0.109924
6.28405
0.101695
0.00128376
-6.36136e-05
-0.0444705
-1.57809
1.57989
0.0426564
8.48795e-05
0.000548526
-0.0817383
-1.60061
1.61716
0.0652693
-0.000608246
0.00264577
-0.0262014
-1.71229
1.74951
0.0584705
-0.00143312
-0.0216235
-0.0271052
-0.0219207
0.00468163
0.10884
-1.71131
1.68105
-0.0781506
-0.00504601
0.107742
-1.6109
0.00568063
1.59971
-0.0947672
-0.00741865
0.00672611
0.0773563
-1.58424
-0.00890384
1.58188
-0.0728105
0.0074808
0.0563221
-1.57811
1.57648
-0.0525284
-0.00964635
0.0079363
0.0570471
-1.57538
1.57389
-0.0535992
-0.00989343
0.00819365
0.05055
-1.57295
1.57228
-0.0481723
-0.00989793
0.00823079
0.046538
-1.56943
1.56972
-0.0453245
-0.00973211
-1.56962
0.0327662
0.175334
6.27314
-0.156445
-0.0452014
-1.5698
-1.56971
-1.57046
25.0802
-0.528736
-0.261941
-6.27547
-6.26959
-6.27971
-6.27426
25.079
-0.522462
-0.261545
25.0752
-0.513094
-0.26085
25.0715
-0.507893
-0.261004
25.0684
-0.503506
-0.261504
25.0664
-0.500616
-0.262051
25.0651
-0.498003
-0.262566
25.0644
-0.49572
-0.262995
25.064
-0.493608
-0.2633
25.0638
-0.491335
-0.263466
25.0636
-0.489318
-0.263514
25.0639
-0.487626
-0.263699
25.0638
-0.485921
-0.263367
25.0632
-0.483694
-0.263273
25.063
-0.482296
-0.263256
25.0628
-0.480453
-0.263496
25.0628
-0.478492
-0.264159
25.0631
-0.475834
-0.265396
-0.472943
-0.267068
25.0067
-0.00948615
0.000465444
25.0166
-0.000224334
0.000915455
25.0304
0.0189396
0.00130565
25.0386
0.0493609
0.00160729
25.056
0.070631
0.00171077
25.0794
0.0953076
0.00141343
25.1174
0.123374
0.000348555
25.1829
0.156951
-0.0021882
6.32964
0.198638
-0.00742715
6.31852
6.33398
6.31718
-0.0863655
0.00153251
6.34803
0.0687749
-0.00236182
-0.033106
0.00359164
6.42166
0.0887784
-0.00521185
-0.0313077
-0.0333829
-0.0305537
-6.38048
-0.0297825
0.00740745
6.4939
0.0827434
-0.010673
-0.0290556
-0.0289943
-0.0314587
-6.45403
-0.00936197
0.0129265
-6.54229
6.50133
-0.057954
-0.0191964
0.0630709
-0.0107128
0.0623845
0.0352897
0.0196808
-6.4944
6.47617
-0.145067
-0.0290631
0.0519204
0.0344961
0.0511275
0.0588732
-6.45244
0.0252313
6.40828
-0.184698
-0.0372395
0.0580413
0.0624081
0.0615782
0.0566109
0.0286866
-6.36775
6.33952
-0.178355
-0.0424584
0.0545428
0.0556092
0.0535642
0.045974
0.030819
-6.32565
6.31867
-0.15881
-0.0456576
0.0451808
0.0450965
0.0444069
0.0443796
0.0320265
-6.31465
6.30697
-0.153635
-0.0474498
0.044817
0.0435816
0.0440278
0.0434729
0.0325225
-6.29847
6.28965
-0.143028
-0.0482799
0.0409908
0.0428244
0.0403737
0.0385197
0.0326669
-6.28227
6.27448
-0.126216
-0.04854
0.035585
0.0390099
0.0368023
0.137544
-6.27292
0.0328883
6.27313
-0.122137
-0.0484975
25.0754
-0.38664
-0.263909
-6.2715
-6.2698
-6.27177
-6.26946
25.0674
-0.379966
-0.262957
25.0623
-0.373692
-0.262221
25.0581
-0.369198
-0.26208
25.0555
-0.36622
-0.261962
25.0533
-0.363732
-0.261735
25.0521
-0.362139
-0.261397
25.0517
-0.360756
-0.260952
25.0515
-0.35897
-0.260411
25.0521
-0.357704
-0.259795
25.0526
-0.355925
-0.259103