/*--------------------------------*- C++ -*----------------------------------*\
| =========                 |                                                 |
| \\      /  F ield         | OpenFOAM: The Open Source CFD Toolbox           |
|  \\    /   O peration     | Version:  2306                                  |
|   \\  /    A nd           | Website:  www.openfoam.com                      |
|    \\/     M anipulation  |                                                 |
\*---------------------------------------------------------------------------*/
FoamFile
{
    version     2.0;
    format      ascii;
    arch        "LSB;label=32;scalar=64";
    class       volVectorField;
    location    "1.95";
    object      U;
}
// * * * * * * * * * * * * * * * * * * * * * * * * * * * * * * * * * * * * * //

dimensions      [0 1 -1 0 0 0 0];

internalField   nonuniform List<vector> 
111542
(
(99.9933 0.0052154 0.00297952)
(99.9709 0.0106665 0.00616654)
(99.9295 0.0163259 0.00968373)
(99.8678 0.022344 0.0139994)
(99.7841 0.0284592 0.0195004)
(99.6764 0.0338843 0.0266402)
(99.5436 0.0367421 0.0356882)
(99.3878 0.03404 0.0471409)
(99.2184 0.0211087 0.0614979)
(99.0554 -0.00851449 0.0787719)
(98.9322 -0.0605991 0.0984968)
(98.8898 -0.132847 0.119744)
(98.9548 -0.207083 0.141407)
(99.119 -0.26353 0.161401)
(99.3381 -0.291326 0.178138)
(99.5638 -0.299913 0.191367)
(99.7684 -0.298179 0.201375)
(99.9431 -0.290916 0.209089)
(100.087 -0.281336 0.215236)
(100.203 -0.271768 0.220443)
(100.292 -0.263746 0.224821)
(100.36 -0.257484 0.22868)
(100.411 -0.25263 0.232342)
(100.449 -0.249432 0.235596)
(100.476 -0.247638 0.238488)
(100.497 -0.24672 0.241219)
(100.513 -0.246695 0.243531)
(100.524 -0.247338 0.245402)
(100.532 -0.248259 0.246948)
(100.538 -0.249268 0.248141)
(100.542 -0.250279 0.248937)
(100.546 -0.251298 0.249285)
(100.548 -0.252158 0.249367)
(100.551 -0.252848 0.249249)
(100.555 -0.253425 0.248955)
(100.559 -0.253973 0.248497)
(100.565 -0.254619 0.247836)
(100.572 -0.255296 0.247135)
(100.582 -0.256085 0.246449)
(100.598 -0.257246 0.245894)
(99.9936 0.0155477 0.00291706)
(99.9716 0.0317407 0.00596622)
(99.9307 0.0489508 0.00944433)
(99.8693 0.0675464 0.0137142)
(99.7849 0.086923 0.0191522)
(99.6739 0.104976 0.026199)
(99.5328 0.11675 0.0353106)
(99.3611 0.113377 0.0470151)
(99.1648 0.0801436 0.0618063)
(98.9627 -0.00414685 0.0798868)
(98.7962 -0.157093 0.101001)
(98.7321 -0.372527 0.123647)
(98.8155 -0.597809 0.147265)
(99.0255 -0.760607 0.169311)
(99.2903 -0.841632 0.187517)
(99.5453 -0.870196 0.201399)
(99.7657 -0.868353 0.211749)
(99.9485 -0.849687 0.219679)
(100.095 -0.824085 0.226007)
(100.21 -0.797708 0.231245)
(100.297 -0.774645 0.235719)
(100.361 -0.757081 0.239757)
(100.409 -0.744523 0.243454)
(100.444 -0.736295 0.246715)
(100.47 -0.730379 0.249588)
(100.488 -0.72547 0.252169)
(100.502 -0.721761 0.254424)
(100.512 -0.719223 0.256314)
(100.519 -0.717426 0.257827)
(100.523 -0.716114 0.258942)
(100.527 -0.715186 0.259657)
(100.53 -0.714641 0.260002)
(100.532 -0.714292 0.26006)
(100.534 -0.714144 0.259903)
(100.537 -0.714306 0.259577)
(100.541 -0.714929 0.259117)
(100.546 -0.716201 0.258537)
(100.553 -0.718057 0.257877)
(100.561 -0.720559 0.257178)
(100.575 -0.723788 0.256604)
(99.9939 0.025527 0.00276248)
(99.973 0.0522077 0.00564194)
(99.9336 0.08131 0.00896048)
(99.8736 0.113678 0.0130602)
(99.789 0.14903 0.0183226)
(99.6733 0.185016 0.0252225)
(99.5188 0.215294 0.0343206)
(99.3177 0.226168 0.0462731)
(99.0672 0.190879 0.0617954)
(98.7843 0.0607206 0.0815139)
(98.5285 -0.274397 0.105792)
(98.4126 -0.738861 0.133459)
(98.5335 -1.16028 0.159742)
(98.8386 -1.40245 0.184553)
(99.1863 -1.50083 0.204375)
(99.4919 -1.52782 0.218708)
(99.7418 -1.50906 0.229043)
(99.9396 -1.46802 0.236912)
(100.091 -1.42039 0.243216)
(100.205 -1.37385 0.248441)
(100.287 -1.33472 0.253022)
(100.346 -1.30209 0.257226)
(100.388 -1.28328 0.260987)
(100.42 -1.27642 0.264334)
(100.444 -1.27425 0.267364)
(100.462 -1.27315 0.270052)
(100.474 -1.27258 0.272291)
(100.481 -1.27236 0.273981)
(100.485 -1.27215 0.275076)
(100.487 -1.27176 0.275583)
(100.487 -1.27115 0.275555)
(100.486 -1.2704 0.27509)
(100.484 -1.26957 0.274313)
(100.483 -1.26882 0.273352)
(100.481 -1.26834 0.272304)
(100.48 -1.26838 0.271229)
(100.48 -1.26918 0.270142)
(100.482 -1.27087 0.269037)
(100.486 -1.27345 0.267934)
(100.493 -1.27657 0.267046)
(99.9945 0.0347059 0.00252375)
(99.9757 0.0713391 0.00515516)
(99.9398 0.112256 0.00820237)
(99.884 0.159481 0.0119967)
(99.8024 0.214194 0.0169166)
(99.6857 0.275874 0.0234509)
(99.519 0.340313 0.032231)
(99.2815 0.394982 0.0440471)
(98.944 0.41023 0.0598935)
(98.4414 0.210985 0.0810557)
(98.1815 0.0323909 0.0878269)
(97.8289 -0.624681 0.103441)
(97.8883 -1.43097 0.117516)
(98.3636 -1.95246 0.130163)
(98.8667 -2.10944 0.142437)
(99.2663 -2.14334 0.150139)
(99.5913 -2.10483 0.154897)
(99.8391 -2.02985 0.15821)
(100.022 -1.94779 0.160842)
(100.156 -1.87457 0.163164)
(100.322 -1.93583 0.275169)
(100.363 -1.87316 0.281742)
(100.378 -1.82914 0.285604)
(100.387 -1.80376 0.288213)
(100.394 -1.78833 0.290742)
(100.397 -1.77929 0.293162)
(100.392 -1.77483 0.295075)
(100.382 -1.77319 0.296194)
(100.368 -1.77297 0.296399)
(100.351 -1.77341 0.295708)
(100.331 -1.77411 0.294249)
(100.309 -1.77492 0.29223)
(100.287 -1.77586 0.289889)
(100.263 -1.77707 0.287444)
(100.24 -1.77877 0.28505)
(100.216 -1.78122 0.282782)
(100.192 -1.78472 0.280614)
(100.169 -1.78953 0.278458)
(100.148 -1.79566 0.27623)
(100.125 -1.80205 0.2741)
(99.9956 0.0423717 0.00220009)
(99.9802 0.0875744 0.0044959)
(99.9507 0.139278 0.00715762)
(99.9036 0.20125 0.010482)
(99.8324 0.277285 0.0148136)
(99.7256 0.371126 0.0206014)
(99.5634 0.48566 0.0284544)
(99.3131 0.61975 0.0391549)
(98.8689 0.760387 0.0537276)
(98.5232 0.769735 0.0589863)
(97.7053 0.383831 0.0720324)
(96.8915 -0.679068 0.0886845)
(96.9726 -2.33833 0.102958)
(98.0895 -2.9602 0.115602)
(98.8165 -3.00838 0.130378)
(99.2973 -2.97289 0.137125)
(99.6725 -2.85468 0.140931)
(99.9273 -2.71547 0.144904)
(100.097 -2.58527 0.149391)
(100.201 -2.48012 0.154311)
(100.264 -2.42914 0.162436)
(100.179 -2.5558 0.324721)
(100.058 -2.5442 0.326795)
(99.94 -2.52065 0.323795)
(99.8306 -2.49321 0.319082)
(99.7238 -2.46921 0.313589)
(99.6186 -2.44929 0.307344)
(99.5164 -2.43207 0.300297)
(99.4182 -2.4166 0.292491)
(99.3245 -2.40244 0.284081)
(99.2357 -2.38941 0.275344)
(99.1516 -2.37746 0.266633)
(99.0721 -2.36666 0.258304)
(98.9968 -2.35718 0.250638)
(98.9254 -2.34923 0.243794)
(98.8574 -2.34306 0.237775)
(98.7927 -2.33899 0.232419)
(98.7318 -2.33748 0.227451)
(98.6763 -2.3395 0.222557)
(98.621 -2.34732 0.21763)
(99.9971 0.0476204 0.00179858)
(99.9868 0.0989031 0.00367284)
(99.9668 0.158795 0.00583347)
(99.9342 0.232916 0.00851478)
(99.8835 0.328143 0.0119781)
(99.8041 0.453861 0.016557)
(99.6769 0.623882 0.0226961)
(99.4652 0.858815 0.030935)
(99.0451 1.19073 0.0418864)
(98.6353 1.35609 0.0461924)
(97.6788 1.50509 0.0440369)
(95.5594 0.749459 0.0400904)
(94.3275 -3.39708 0.0543551)
(98.1066 -4.72555 0.0466233)
(98.6443 -3.97114 0.0532633)
(99.2467 -3.89409 0.0427085)
(99.6502 -3.67569 0.0439167)
(99.8238 -3.4532 0.0450012)
(99.8587 -3.26879 0.0370062)
(99.788 -3.09845 0.0193591)
(98.5442 -2.88889 0.16807)
(95.16 -2.54881 0.235943)
(95.2291 -2.60714 0.227209)
(95.3069 -2.63371 0.216131)
(95.3659 -2.64604 0.203476)
(95.4108 -2.65481 0.189467)
(95.4506 -2.66158 0.174397)
(95.4894 -2.66561 0.158706)
(95.5291 -2.66652 0.142937)
(95.5708 -2.66442 0.127653)
(95.615 -2.65975 0.113362)
(95.6621 -2.65316 0.100453)
(95.7116 -2.64551 0.0891424)
(95.7632 -2.63764 0.0794775)
(95.816 -2.63035 0.0713372)
(95.8694 -2.62428 0.0644536)
(95.9229 -2.6199 0.0584409)
(95.9759 -2.6177 0.0528246)
(96.0272 -2.61853 0.0471058)
(96.0841 -2.62479 0.0410396)
(99.9989 0.0495793 0.00137393)
(99.995 0.103319 0.00277654)
(99.9873 0.167017 0.00435054)
(99.9744 0.247549 0.00624701)
(99.9537 0.353969 0.00860494)
(99.9205 0.499942 0.0115746)
(99.8665 0.707672 0.0152991)
(99.7776 1.01602 0.0198219)
(99.6065 1.4989 0.0248959)
(99.3399 1.90307 0.0269803)
(98.6246 2.84922 0.0239744)
(95.4911 5.88479 0.0193124)
(77.018 -4.1964 0.0525926)
(102.602 -10.2806 0.0229143)
(50.9037 -2.60807 -0.599297)
(74.5593 -4.1148 -0.190965)
(79.0652 -3.52119 -0.070455)
(82.4307 -3.32971 0.00251252)
(85.0363 -3.25093 0.0420001)
(87.0942 -3.23253 0.0647423)
(93.46 -3.80435 -0.144144)
(96.5197 -3.37246 -0.276622)
(96.628 -3.24544 -0.264421)
(96.746 -3.1538 -0.25273)
(96.8398 -3.08585 -0.242808)
(96.9176 -3.03235 -0.234766)
(96.989 -2.98856 -0.228023)
(97.0567 -2.95151 -0.222063)
(97.1213 -2.91901 -0.216617)
(97.1831 -2.88953 -0.211613)
(97.243 -2.86214 -0.207091)
(97.3021 -2.83642 -0.203132)
(97.3612 -2.81228 -0.199803)
(97.4207 -2.78979 -0.197125)
(97.4812 -2.76909 -0.195074)
(97.5425 -2.75028 -0.193604)
(97.6045 -2.7333 -0.192705)
(97.6667 -2.71787 -0.192415)
(97.7286 -2.70317 -0.192857)
(97.8032 -2.68692 -0.194188)
(100.001 0.0476685 0.000955661)
(100.004 0.0994996 0.00184937)
(100.01 0.161382 0.00280285)
(100.019 0.240292 0.0038638)
(100.032 0.345473 0.00503031)
(100.053 0.490643 0.00624281)
(100.087 0.697336 0.00732049)
(100.15 1.00147 0.00780539)
(100.298 1.46524 0.00668283)
(100.349 1.87793 0.0062423)
(100.633 2.86601 0.00206922)
(102.477 5.38907 -0.00563388)
(111.193 3.83132 -0.0234131)
(109.093 -6.72277 0.0186145)
(102.819 -6.80737 -0.0270916)
(101.139 -5.00002 -0.0381896)
(100.69 -3.99949 -0.0426361)
(100.523 -3.45629 -0.0437554)
(100.444 -3.14497 -0.0427596)
(100.382 -2.96514 -0.0415053)
(100.293 -2.74459 -0.146276)
(100.302 -2.32568 -0.276814)
(100.278 -2.22493 -0.274387)
(100.259 -2.16811 -0.270245)
(100.244 -2.13724 -0.266476)
(100.23 -2.11812 -0.263665)
(100.218 -2.1051 -0.261672)
(100.208 -2.09588 -0.260261)
(100.201 -2.08898 -0.259221)
(100.197 -2.08332 -0.258365)
(100.194 -2.07828 -0.257555)
(100.193 -2.07362 -0.256718)
(100.193 -2.06928 -0.255844)
(100.195 -2.0653 -0.254967)
(100.197 -2.06172 -0.254161)
(100.2 -2.05849 -0.253531)
(100.203 -2.05547 -0.253216)
(100.207 -2.0522 -0.253372)
(100.213 -2.04774 -0.254131)
(100.225 -2.03991 -0.255394)
(100.003 0.0417779 0.000479934)
(100.012 0.087279 0.000908907)
(100.031 0.141626 0.00129604)
(100.06 0.210791 0.00157476)
(100.104 0.302328 0.00162821)
(100.171 0.426445 0.00123473)
(100.276 0.597341 -2.33968e-05)
(100.444 0.834447 -0.00290229)
(100.764 1.16194 -0.00879786)
(100.992 1.40186 -0.0110041)
(101.851 1.8569 -0.018802)
(103.472 1.75342 -0.0334833)
(105.253 -0.260198 -0.0522669)
(104.8 -2.83823 -0.0344057)
(103.004 -3.56027 -0.053974)
(101.784 -3.33946 -0.0706193)
(101.156 -2.98185 -0.0807324)
(100.822 -2.68022 -0.0868167)
(100.629 -2.45619 -0.0907712)
(100.503 -2.29257 -0.0937245)
(100.411 -2.16687 -0.097139)
(100.307 -1.88828 -0.256703)
(100.267 -1.85876 -0.256519)
(100.239 -1.83862 -0.255618)
(100.22 -1.82593 -0.255017)
(100.206 -1.81662 -0.254809)
(100.197 -1.80835 -0.254763)
(100.19 -1.80033 -0.254676)
(100.186 -1.79218 -0.254428)
(100.184 -1.78362 -0.253958)
(100.184 -1.77453 -0.253267)
(100.186 -1.765 -0.252398)
(100.189 -1.75518 -0.25142)
(100.192 -1.74526 -0.250416)
(100.197 -1.73541 -0.249477)
(100.202 -1.72571 -0.248704)
(100.207 -1.71618 -0.248209)
(100.214 -1.70667 -0.248122)
(100.224 -1.69702 -0.24859)
(100.242 -1.68738 -0.249823)
(100.004 0.0324218 0.000120413)
(100.019 0.0677324 0.000195442)
(100.048 0.109768 9.93068e-05)
(100.093 0.162846 -0.000279978)
(100.16 0.231997 -0.00113325)
(100.259 0.323041 -0.00279886)
(100.406 0.442198 -0.0058215)
(100.626 0.593796 -0.0110713)
(100.962 0.773782 -0.0199616)
(101.452 0.857002 -0.0342978)
(102.095 0.757504 -0.0558657)
(102.774 0.227268 -0.0855875)
(103.135 -0.760262 -0.119304)
(102.89 -1.58841 -0.149956)
(102.249 -1.89196 -0.180151)
(101.62 -1.89391 -0.203462)
(101.175 -1.8051 -0.218392)
(100.886 -1.69859 -0.227529)
(100.693 -1.59926 -0.233351)
(100.556 -1.51339 -0.237211)
(100.461 -1.44093 -0.239913)
(100.395 -1.37834 -0.241937)
(100.347 -1.329 -0.243354)
(100.311 -1.28952 -0.244547)
(100.285 -1.25894 -0.245755)
(100.265 -1.23548 -0.247009)
(100.249 -1.21705 -0.248257)
(100.237 -1.20213 -0.249414)
(100.228 -1.18971 -0.250397)
(100.222 -1.17904 -0.251142)
(100.217 -1.1696 -0.251616)
(100.215 -1.16105 -0.251822)
(100.214 -1.15318 -0.251794)
(100.214 -1.14588 -0.251592)
(100.216 -1.13902 -0.251308)
(100.218 -1.13257 -0.251049)
(100.222 -1.12645 -0.250939)
(100.227 -1.12056 -0.251122)
(100.234 -1.11488 -0.251759)
(100.244 -1.10959 -0.253054)
(100.005 0.0205054 -0.000158862)
(100.024 0.0427454 -0.00039065)
(100.059 0.0692074 -0.000838707)
(100.115 0.102208 -0.00166927)
(100.196 0.144614 -0.00315146)
(100.313 0.198806 -0.00566156)
(100.477 0.266185 -0.00977982)
(100.706 0.344154 -0.0163049)
(101.017 0.419642 -0.0263345)
(101.42 0.453209 -0.0411215)
(101.887 0.388795 -0.0617962)
(102.32 0.152138 -0.088799)
(102.545 -0.266438 -0.119472)
(102.432 -0.693084 -0.149201)
(102.047 -0.934953 -0.175806)
(101.591 -0.992637 -0.196411)
(101.214 -0.962599 -0.210762)
(100.941 -0.907944 -0.22017)
(100.745 -0.852437 -0.226473)
(100.599 -0.802915 -0.230867)
(100.49 -0.762011 -0.234059)
(100.409 -0.732426 -0.236511)
(100.347 -0.712967 -0.238542)
(100.301 -0.700959 -0.240272)
(100.267 -0.694309 -0.241786)
(100.241 -0.691415 -0.243122)
(100.222 -0.69078 -0.24427)
(100.208 -0.691264 -0.245188)
(100.198 -0.692156 -0.245824)
(100.192 -0.69304 -0.246145)
(100.188 -0.693662 -0.246147)
(100.186 -0.693916 -0.245855)
(100.186 -0.693781 -0.245315)
(100.187 -0.693336 -0.244596)
(100.189 -0.692383 -0.243818)
(100.192 -0.691131 -0.243063)
(100.197 -0.689655 -0.242437)
(100.203 -0.687974 -0.242081)
(100.213 -0.686118 -0.242179)
(100.23 -0.68403 -0.243053)
(100.006 0.00701437 -0.000324541)
(100.026 0.0145869 -0.000665125)
(100.065 0.0236214 -0.00132621)
(100.125 0.034749 -0.00233621)
(100.213 0.0489946 -0.00415561)
(100.337 0.0668961 -0.00709838)
(100.507 0.0884347 -0.0117832)
(100.734 0.112096 -0.0188913)
(101.027 0.132734 -0.0294954)
(101.378 0.137697 -0.0442959)
(101.754 0.107102 -0.0639239)
(102.078 0.020509 -0.0882398)
(102.246 -0.11843 -0.115582)
(102.183 -0.262222 -0.142953)
(101.913 -0.353534 -0.166928)
(101.555 -0.381753 -0.18608)
(101.222 -0.3758 -0.200153)
(100.96 -0.360206 -0.209748)
(100.763 -0.344142 -0.216379)
(100.613 -0.329871 -0.221141)
(100.5 -0.318061 -0.224749)
(100.414 -0.309048 -0.227624)
(100.349 -0.302003 -0.230023)
(100.302 -0.296083 -0.232012)
(100.266 -0.290606 -0.233787)
(100.24 -0.285283 -0.235377)
(100.22 -0.279935 -0.236751)
(100.206 -0.274467 -0.237869)
(100.196 -0.268886 -0.23869)
(100.189 -0.263249 -0.23919)
(100.184 -0.257633 -0.239366)
(100.181 -0.252111 -0.239233)
(100.18 -0.246766 -0.238828)
(100.181 -0.2417 -0.238168)
(100.183 -0.236752 -0.237547)
(100.186 -0.232079 -0.236936)
(100.19 -0.227741 -0.236419)
(100.195 -0.223771 -0.236143)
(100.203 -0.220305 -0.2363)
(100.215 -0.217854 -0.237245)
(99.9938 0.00515352 0.00860774)
(99.9724 0.0104677 0.0177316)
(99.9328 0.0160904 0.0280596)
(99.8738 0.0220666 0.0407325)
(99.7938 0.0281229 0.0568376)
(99.6906 0.0334627 0.0776195)
(99.5632 0.0363893 0.10416)
(99.414 0.0339399 0.137861)
(99.2519 0.0214395 0.179967)
(99.0959 -0.00740926 0.230678)
(98.9786 -0.0582103 0.289028)
(98.9399 -0.129048 0.352313)
(99.0052 -0.200999 0.416164)
(99.1655 -0.255066 0.47497)
(99.3782 -0.281327 0.524261)
(99.5961 -0.289174 0.5631)
(99.7925 -0.287027 0.592541)
(99.9594 -0.279482 0.614969)
(100.096 -0.269665 0.632437)
(100.204 -0.260052 0.646579)
(100.288 -0.251846 0.658175)
(100.351 -0.245341 0.668145)
(100.398 -0.240404 0.677236)
(100.434 -0.237168 0.685299)
(100.461 -0.235364 0.692343)
(100.482 -0.234581 0.698564)
(100.498 -0.2346 0.703675)
(100.511 -0.235213 0.707722)
(100.522 -0.236164 0.71093)
(100.53 -0.23725 0.713333)
(100.537 -0.238334 0.714933)
(100.542 -0.239342 0.715733)
(100.547 -0.240214 0.716011)
(100.552 -0.240934 0.715881)
(100.557 -0.241528 0.715382)
(100.562 -0.242062 0.714522)
(100.568 -0.24261 0.713244)
(100.575 -0.243225 0.711702)
(100.584 -0.244008 0.709872)
(100.599 -0.245163 0.707695)
(99.994 0.0153325 0.00840744)
(99.973 0.0312215 0.0172414)
(99.934 0.0482389 0.0273937)
(99.8752 0.0666278 0.0398888)
(99.7944 0.0857795 0.0558181)
(99.6879 0.10362 0.0764676)
(99.5524 0.115475 0.103242)
(99.3874 0.112625 0.137732)
(99.1985 0.0805557 0.181414)
(99.0037 -0.00136199 0.235072)
(98.8432 -0.150129 0.298071)
(98.7831 -0.359031 0.367888)
(98.8668 -0.578565 0.438989)
(99.0719 -0.737512 0.504099)
(99.3289 -0.815391 0.557175)
(99.5753 -0.842728 0.597573)
(99.7876 -0.840405 0.627578)
(99.963 -0.82142 0.650224)
(100.103 -0.795521 0.667814)
(100.212 -0.768983 0.681816)
(100.294 -0.745618 0.693239)
(100.355 -0.72765 0.70329)
(100.4 -0.714954 0.712365)
(100.433 -0.706605 0.720214)
(100.458 -0.700537 0.726803)
(100.478 -0.695659 0.732341)
(100.492 -0.692017 0.73694)
(100.503 -0.689656 0.740693)
(100.511 -0.688296 0.743696)
(100.518 -0.68765 0.746001)
(100.523 -0.687519 0.747659)
(100.527 -0.687761 0.748744)
(100.531 -0.688234 0.749387)
(100.535 -0.688901 0.749677)
(100.538 -0.689799 0.749653)
(100.542 -0.691015 0.74932)
(100.547 -0.692695 0.748644)
(100.553 -0.694938 0.747603)
(100.562 -0.697818 0.746131)
(100.575 -0.701333 0.744203)
(99.9943 0.0251361 0.00796393)
(99.9743 0.0514051 0.0163306)
(99.9368 0.0800864 0.026019)
(99.8793 0.111995 0.0380307)
(99.7981 0.146853 0.0534926)
(99.687 0.182379 0.0738072)
(99.5382 0.212396 0.100679)
(99.3442 0.223473 0.136137)
(99.102 0.189315 0.182393)
(98.8279 0.0620425 0.24137)
(98.5802 -0.265841 0.313684)
(98.4681 -0.72018 0.395545)
(98.5864 -1.13099 0.478542)
(98.8841 -1.36635 0.553616)
(99.2222 -1.46152 0.61192)
(99.5182 -1.48784 0.653811)
(99.7599 -1.46883 0.683716)
(99.9508 -1.42731 0.705906)
(100.097 -1.37897 0.723001)
(100.206 -1.33127 0.736429)
(100.285 -1.28996 0.747032)
(100.342 -1.25521 0.756782)
(100.383 -1.23648 0.766002)
(100.414 -1.23032 0.774067)
(100.439 -1.22837 0.780703)
(100.457 -1.22716 0.785996)
(100.469 -1.22649 0.790093)
(100.477 -1.22648 0.793116)
(100.481 -1.22692 0.795185)
(100.483 -1.22761 0.796441)
(100.483 -1.22841 0.797036)
(100.482 -1.22926 0.797141)
(100.481 -1.23011 0.796925)
(100.479 -1.23095 0.796522)
(100.478 -1.23191 0.796005)
(100.477 -1.23317 0.795367)
(100.477 -1.23499 0.794524)
(100.478 -1.23761 0.793326)
(100.482 -1.24115 0.791633)
(100.49 -1.2452 0.789484)
(99.9949 0.0341474 0.00727991)
(99.9769 0.0702047 0.014941)
(99.9427 0.110478 0.0238584)
(99.8892 0.156949 0.0350048)
(99.811 0.210766 0.0495144)
(99.6986 0.271411 0.0688614)
(99.5378 0.334727 0.0950027)
(99.3078 0.388338 0.13046)
(98.9794 0.402888 0.178426)
(98.4883 0.206093 0.242767)
(98.2291 0.0239972 0.275206)
(97.8821 -0.63628 0.3502)
(97.9437 -1.43654 0.431396)
(98.414 -1.95754 0.508267)
(98.9056 -2.11358 0.567994)
(99.2963 -2.15006 0.608437)
(99.6156 -2.1132 0.635401)
(99.8595 -2.03745 0.654455)
(100.039 -1.95304 0.668781)
(100.172 -1.87663 0.68022)
(100.334 -1.90082 0.812825)
(100.373 -1.82975 0.823406)
(100.386 -1.78349 0.830806)
(100.394 -1.75913 0.836691)
(100.402 -1.74514 0.842342)
(100.404 -1.73739 0.847647)
(100.398 -1.73433 0.85212)
(100.385 -1.73448 0.855458)
(100.368 -1.7367 0.857581)
(100.347 -1.74029 0.858553)
(100.324 -1.74474 0.858545)
(100.3 -1.7497 0.857794)
(100.274 -1.75485 0.856553)
(100.248 -1.76005 0.855033)
(100.222 -1.76526 0.853357)
(100.197 -1.77064 0.851521)
(100.172 -1.77649 0.849363)
(100.148 -1.78323 0.846579)
(100.127 -1.79113 0.842772)
(100.105 -1.79941 0.83761)
(99.9959 0.0416514 0.00634857)
(99.9813 0.0861059 0.0130408)
(99.9532 0.136937 0.020849)
(99.9081 0.19782 0.0306479)
(99.8399 0.272441 0.0434813)
(99.737 0.364412 0.0607441)
(99.5802 0.476464 0.084374)
(99.3368 0.607258 0.116973)
(98.9023 0.743435 0.161955)
(98.5588 0.747307 0.187263)
(97.7495 0.358893 0.251041)
(96.9445 -0.701038 0.333307)
(97.0286 -2.34354 0.430721)
(98.1323 -2.95787 0.522367)
(98.8389 -3.00008 0.586147)
(99.3103 -2.97264 0.621325)
(99.6858 -2.85814 0.642618)
(99.9425 -2.71662 0.658384)
(100.114 -2.5813 0.670804)
(100.224 -2.46979 0.680616)
(100.299 -2.396 0.688693)
(100.225 -2.53535 0.810512)
(100.094 -2.52774 0.812598)
(99.9692 -2.50594 0.809689)
(99.856 -2.47899 0.806644)
(99.7453 -2.45506 0.803933)
(99.6353 -2.4355 0.800546)
(99.5272 -2.41964 0.795725)
(99.4219 -2.40704 0.789176)
(99.32 -2.39744 0.78097)
(99.2219 -2.39049 0.771448)
(99.1283 -2.38566 0.761117)
(99.0394 -2.38243 0.750509)
(98.9555 -2.38033 0.740078)
(98.8767 -2.37909 0.730093)
(98.8028 -2.37866 0.720589)
(98.7339 -2.37925 0.71129)
(98.6703 -2.38152 0.701635)
(98.6137 -2.38682 0.690823)
(98.5602 -2.39799 0.678131)
(99.9973 0.0467985 0.00526907)
(99.9877 0.0971964 0.0107515)
(99.9687 0.156013 0.0171017)
(99.9377 0.228727 0.0250264)
(99.8892 0.322017 0.0353369)
(99.8128 0.444994 0.0491093)
(99.6896 0.611036 0.0678194)
(99.4831 0.840083 0.0934307)
(99.0696 1.16303 0.128352)
(98.6619 1.32418 0.148847)
(97.71 1.46606 0.176128)
(95.6028 0.700941 0.227182)
(94.3824 -3.43016 0.325973)
(98.1682 -4.71748 0.44671)
(98.6529 -3.94155 0.534764)
(99.2343 -3.94752 0.560865)
(99.6548 -3.74046 0.598083)
(99.8528 -3.47059 0.636374)
(99.9296 -3.20314 0.658757)
(99.9281 -2.94439 0.65958)
(99.0037 -2.60809 0.563303)
(95.1929 -2.42605 0.355921)
(95.2574 -2.53533 0.350865)
(95.3309 -2.59984 0.348762)
(95.3857 -2.63862 0.349501)
(95.4282 -2.66421 0.351126)
(95.4678 -2.68065 0.351643)
(95.5085 -2.69029 0.34997)
(95.551 -2.6956 0.345852)
(95.5952 -2.69871 0.339543)
(95.6411 -2.70101 0.331552)
(95.6884 -2.70321 0.322494)
(95.7369 -2.70557 0.312877)
(95.7866 -2.70808 0.303106)
(95.8373 -2.71066 0.293412)
(95.8888 -2.71325 0.283795)
(95.9411 -2.71596 0.273969)
(95.994 -2.71923 0.263291)
(96.0467 -2.72422 0.250633)
(96.1098 -2.73397 0.234092)
(99.9991 0.0487239 0.00397123)
(99.9955 0.101491 0.00807716)
(99.9884 0.163989 0.0127361)
(99.9764 0.242913 0.0183849)
(99.957 0.347059 0.0254716)
(99.9253 0.489713 0.0345213)
(99.8732 0.69247 0.0461321)
(99.7859 0.993256 0.0607631)
(99.6152 1.46441 0.0781877)
(99.3486 1.86207 0.0881093)
(98.6315 2.79453 0.0968778)
(95.4915 5.78716 0.107153)
(77.1882 -4.36313 0.192915)
(58.0019 -5.30118 -0.397479)
(80.1351 -5.95849 -1.0376)
(83.0187 -4.90433 -0.945825)
(83.8497 -4.05986 -0.811593)
(83.8859 -3.34346 -0.695518)
(83.9621 -2.82934 -0.591578)
(91.0871 -3.3215 -0.441098)
(96.1419 -3.34712 -0.631093)
(96.3284 -3.25242 -0.623636)
(96.516 -3.18634 -0.614341)
(96.6674 -3.13782 -0.605726)
(96.7933 -3.09811 -0.597845)
(96.9061 -3.06349 -0.590148)
(97.0113 -3.03243 -0.58238)
(97.1108 -3.00423 -0.574531)
(97.2056 -2.9785 -0.566713)
(97.2965 -2.95501 -0.559096)
(97.3834 -2.93361 -0.55185)
(97.4664 -2.91414 -0.545109)
(97.5452 -2.89642 -0.538986)
(97.6197 -2.88028 -0.533562)
(97.69 -2.86555 -0.528953)
(97.7563 -2.85199 -0.525424)
(97.8189 -2.83918 -0.52344)
(97.8782 -2.82628 -0.523796)
(97.9473 -2.811 -0.527492)
(100.001 0.046759 0.00266177)
(100.004 0.0976253 0.00533263)
(100.01 0.158326 0.00820408)
(100.019 0.235629 0.0114071)
(100.033 0.338521 0.0149761)
(100.053 0.480336 0.0188093)
(100.087 0.682069 0.0224862)
(100.148 0.978861 0.0248536)
(100.29 1.43189 0.0231284)
(100.339 1.83856 0.0207225)
(100.614 2.81494 0.00788602)
(102.427 5.3227 -0.0356666)
(110.978 3.97354 -0.110612)
(109.068 -6.48292 -0.290029)
(102.83 -6.79348 -0.40885)
(101.152 -5.00722 -0.495589)
(100.693 -4.00113 -0.549279)
(100.517 -3.43091 -0.576638)
(100.433 -3.08613 -0.585652)
(100.366 -2.88093 -0.58295)
(100.252 -2.68711 -0.616179)
(100.277 -2.33385 -0.748585)
(100.259 -2.24251 -0.74505)
(100.245 -2.19273 -0.738961)
(100.234 -2.16706 -0.734567)
(100.224 -2.15188 -0.732498)
(100.217 -2.14221 -0.732026)
(100.213 -2.13633 -0.732444)
(100.211 -2.13297 -0.733214)
(100.212 -2.13103 -0.733927)
(100.213 -2.12974 -0.734332)
(100.215 -2.12861 -0.734345)
(100.217 -2.1274 -0.734011)
(100.218 -2.126 -0.73345)
(100.219 -2.1244 -0.732898)
(100.219 -2.12259 -0.732654)
(100.219 -2.12047 -0.733128)
(100.219 -2.11768 -0.734816)
(100.221 -2.11331 -0.738232)
(100.229 -2.10529 -0.743417)
(100.003 0.0409326 0.00139066)
(100.012 0.0856162 0.00273115)
(100.03 0.138914 0.00392459)
(100.059 0.206651 0.00482314)
(100.102 0.296175 0.00510019)
(100.168 0.417396 0.00413162)
(100.27 0.584171 0.000751606)
(100.434 0.815492 -0.00717379)
(100.746 1.13501 -0.0236416)
(100.97 1.3708 -0.034893)
(101.814 1.81858 -0.0739606)
(103.413 1.71403 -0.147974)
(105.173 -0.26932 -0.25706)
(104.727 -2.81856 -0.379484)
(102.961 -3.55082 -0.480133)
(101.756 -3.32918 -0.548749)
(101.139 -2.97371 -0.589556)
(100.813 -2.67498 -0.61138)
(100.625 -2.45351 -0.622332)
(100.5 -2.29223 -0.627453)
(100.408 -2.16276 -0.629596)
(100.307 -1.87279 -0.771113)
(100.271 -1.8452 -0.769256)
(100.243 -1.82803 -0.766471)
(100.225 -1.8178 -0.763875)
(100.212 -1.81008 -0.761567)
(100.202 -1.80274 -0.759368)
(100.196 -1.7952 -0.757166)
(100.193 -1.78723 -0.754905)
(100.192 -1.77869 -0.752555)
(100.193 -1.76956 -0.750126)
(100.194 -1.75996 -0.747659)
(100.197 -1.75008 -0.745229)
(100.2 -1.7401 -0.742924)
(100.204 -1.73016 -0.740899)
(100.208 -1.72031 -0.739358)
(100.212 -1.71052 -0.738577)
(100.218 -1.70058 -0.738915)
(100.226 -1.69035 -0.740786)
(100.242 -1.68026 -0.744588)
(100.004 0.0317753 0.000342917)
(100.019 0.066418 0.000552412)
(100.046 0.107621 0.000343416)
(100.091 0.159619 -0.000652124)
(100.156 0.227221 -0.003033)
(100.253 0.316121 -0.00775944)
(100.396 0.432368 -0.0163851)
(100.609 0.580153 -0.0314278)
(100.937 0.755408 -0.0569703)
(101.414 0.836936 -0.0987233)
(102.042 0.740373 -0.162468)
(102.706 0.222522 -0.252219)
(103.057 -0.739501 -0.360251)
(102.815 -1.55095 -0.474384)
(102.188 -1.84929 -0.569716)
(101.577 -1.84936 -0.636039)
(101.146 -1.76112 -0.677172)
(100.87 -1.65652 -0.701673)
(100.685 -1.55933 -0.716521)
(100.555 -1.47542 -0.72553)
(100.464 -1.40438 -0.730728)
(100.401 -1.34229 -0.733161)
(100.355 -1.29489 -0.735111)
(100.32 -1.25774 -0.736981)
(100.294 -1.22902 -0.738593)
(100.273 -1.20689 -0.739959)
(100.257 -1.18949 -0.741165)
(100.243 -1.17546 -0.74221)
(100.233 -1.16382 -0.743019)
(100.225 -1.15388 -0.743509)
(100.22 -1.14508 -0.74364)
(100.216 -1.13707 -0.743415)
(100.214 -1.12961 -0.742898)
(100.214 -1.12259 -0.742187)
(100.215 -1.1159 -0.741458)
(100.216 -1.10949 -0.740932)
(100.22 -1.10326 -0.740883)
(100.224 -1.09714 -0.741637)
(100.231 -1.09111 -0.743543)
(100.241 -1.08547 -0.746862)
(100.005 0.0200583 -0.000431586)
(100.023 0.0418946 -0.00103774)
(100.058 0.067821 -0.00224298)
(100.112 0.100208 -0.00455249)
(100.191 0.141632 -0.00876417)
(100.304 0.19455 -0.0159588)
(100.464 0.260313 -0.027785)
(100.686 0.336435 -0.0466063)
(100.989 0.410077 -0.0756423)
(101.38 0.443052 -0.118759)
(101.834 0.38044 -0.179562)
(102.254 0.149262 -0.259311)
(102.473 -0.260678 -0.352371)
(102.363 -0.67707 -0.446584)
(101.987 -0.910379 -0.52843)
(101.545 -0.964197 -0.589256)
(101.182 -0.9333 -0.630017)
(100.92 -0.87921 -0.656389)
(100.734 -0.824705 -0.673737)
(100.596 -0.776347 -0.685381)
(100.493 -0.736657 -0.69325)
(100.416 -0.708219 -0.698686)
(100.359 -0.690029 -0.703014)
(100.315 -0.679095 -0.706596)
(100.281 -0.673288 -0.709428)
(100.255 -0.670991 -0.711555)
(100.235 -0.670738 -0.713049)
(100.22 -0.671423 -0.713934)
(100.208 -0.672379 -0.714197)
(100.199 -0.673229 -0.713841)
(100.193 -0.673746 -0.712903)
(100.189 -0.673838 -0.711458)
(100.186 -0.673482 -0.709621)
(100.186 -0.672722 -0.707546)
(100.187 -0.671562 -0.705466)
(100.189 -0.670079 -0.703579)
(100.193 -0.668307 -0.702133)
(100.199 -0.666279 -0.701446)
(100.208 -0.66405 -0.701896)
(100.224 -0.661735 -0.703966)
(100.006 0.00684739 -0.000864908)
(100.025 0.0143116 -0.00186479)
(100.063 0.0231294 -0.00362127)
(100.122 0.0340688 -0.00654673)
(100.207 0.0479324 -0.0117141)
(100.327 0.0653742 -0.0200917)
(100.492 0.0863801 -0.0333406)
(100.713 0.109489 -0.0536612)
(100.997 0.129566 -0.0839542)
(101.337 0.134517 -0.126826)
(101.701 0.104981 -0.184388)
(102.015 0.0211231 -0.256361)
(102.179 -0.11374 -0.33809)
(102.117 -0.253377 -0.420426)
(101.855 -0.341196 -0.4932)
(101.509 -0.367987 -0.550118)
(101.189 -0.36183 -0.590371)
(100.939 -0.346431 -0.617495)
(100.753 -0.330716 -0.635943)
(100.612 -0.316845 -0.648809)
(100.505 -0.305491 -0.658036)
(100.425 -0.296942 -0.664885)
(100.365 -0.290309 -0.670297)
(100.32 -0.284693 -0.674744)
(100.285 -0.279522 -0.678552)
(100.258 -0.274496 -0.681737)
(100.237 -0.269411 -0.684261)
(100.221 -0.264176 -0.686103)
(100.207 -0.258804 -0.687249)
(100.197 -0.253362 -0.687699)
(100.189 -0.247925 -0.687486)
(100.183 -0.242564 -0.686685)
(100.18 -0.237346 -0.685401)
(100.178 -0.232326 -0.683746)
(100.178 -0.227516 -0.682162)
(100.18 -0.222968 -0.680717)
(100.183 -0.218717 -0.679629)
(100.189 -0.214805 -0.679217)
(100.197 -0.211378 -0.679859)
(100.209 -0.208979 -0.682023)
(99.9943 0.005016 0.0134238)
(99.9746 0.0101787 0.0276257)
(99.938 0.0156659 0.0439988)
(99.8836 0.0215114 0.064118)
(99.8098 0.0274578 0.0896704)
(99.7145 0.0327662 0.122632)
(99.597 0.0358704 0.165096)
(99.4596 0.0339734 0.21934)
(99.3105 0.0226507 0.287353)
(99.1676 -0.00401716 0.369903)
(99.0613 -0.0515341 0.465686)
(99.0285 -0.117348 0.570224)
(99.0926 -0.184368 0.675496)
(99.2451 -0.234339 0.772657)
(99.4453 -0.258203 0.854343)
(99.6491 -0.264999 0.918751)
(99.832 -0.262426 0.96779)
(99.9865 -0.254668 1.00494)
(100.112 -0.244716 1.0334)
(100.211 -0.235101 1.05566)
(100.286 -0.226929 1.07348)
(100.343 -0.220306 1.08847)
(100.386 -0.215238 1.10193)
(100.418 -0.212051 1.11437)
(100.443 -0.210528 1.12573)
(100.463 -0.210129 1.13581)
(100.48 -0.21046 1.14442)
(100.494 -0.211245 1.15157)
(100.506 -0.212226 1.15739)
(100.517 -0.213185 1.16194)
(100.526 -0.213978 1.16532)
(100.535 -0.214544 1.16765)
(100.543 -0.214859 1.16911)
(100.549 -0.214947 1.16982)
(100.556 -0.214851 1.16989)
(100.561 -0.214667 1.16936)
(100.567 -0.214502 1.16823)
(100.573 -0.214459 1.1665)
(100.581 -0.214673 1.16404)
(100.594 -0.215361 1.16057)
(99.9945 0.0149069 0.0130944)
(99.9752 0.0303477 0.0269482)
(99.9391 0.0469257 0.0429891)
(99.8849 0.0648711 0.0627958)
(99.8103 0.0836213 0.0881103)
(99.7119 0.101252 0.121052)
(99.5867 0.113403 0.16404)
(99.4343 0.111839 0.21982)
(99.2598 0.0828017 0.291068)