/*--------------------------------*- C++ -*----------------------------------*\
| =========                 |                                                 |
| \\      /  F ield         | OpenFOAM: The Open Source CFD Toolbox           |
|  \\    /   O peration     | Version:  2306                                  |
|   \\  /    A nd           | Website:  www.openfoam.com                      |
|    \\/     M anipulation  |                                                 |
\*---------------------------------------------------------------------------*/
FoamFile
{
    version     2.0;
    format      ascii;
    arch        "LSB;label=32;scalar=64";
    class       volVectorField;
    location    "1.45";
    object      Force;
}
// * * * * * * * * * * * * * * * * * * * * * * * * * * * * * * * * * * * * * //

dimensions      [1 1 -2 0 0 0 0];

internalField   uniform (0 0 0);

boundaryField
{
    walls
    {
        type            calculated;
        value           uniform (0 0 0);
    }
    inlet
    {
        type            calculated;
        value           uniform (0 0 0);
    }
    outlet
    {
        type            calculated;
        value           uniform (0 0 0);
    }
    NASA
    {
        type            calculated;
        value           nonuniform List<vector> 
14179
(
(-0.0145017 -0.133365 5.40898e-06)
(-0.0129621 -0.107152 3.73241e-06)
(-0.0666431 -0.539015 0.000524209)
(-0.100492 -0.808152 0.0017708)
(-0.0658897 -0.533377 0.000274219)
(-0.109482 -0.880323 0.00197979)
(0.205815 0.89327 -0.000202219)
(0.0971641 0.487657 -5.04733e-05)
(0.653927 3.20556 0.00412368)
(0.102851 0.516229 -5.30416e-05)
(-0.000274876 -0.00613913 2.11711e-06)
(-0.0178187 -0.145747 0.000340453)
(0.13055 0.651904 -0.00131279)
(-0.0355348 -0.32311 0.000873768)
(0.0618898 0.308825 -0.000599184)
(1.37676 0.928712 0.00281616)
(1.39165 0.92225 -0.000304206)
(0.0225156 0.126319 -3.65391e-05)
(0.152228 0.903202 -9.32314e-05)
(1.28893 0.854312 -0.00158217)
(-0.0170575 -0.238669 -1.01518e-05)
(-0.0212537 -0.197623 -0.000128234)
(-0.0195149 -0.270937 -0.000241452)
(-0.00864401 -0.0629593 2.24039e-06)
(-0.0131412 -0.108689 1.62117e-05)
(-0.00934114 -0.0680362 1.46608e-05)
(-0.0129952 -0.107018 0.000291605)
(-0.015162 -0.108649 0.000306336)
(-0.0133866 -0.122243 0.0003339)
(-0.0157533 -0.216124 0.00365071)
(0.0469007 0.204815 2.1675e-05)
(0.0527736 0.248833 3.04213e-06)
(0.0567369 0.267521 -7.50574e-05)
(0.0462737 0.201566 -1.94324e-05)
(0.0650083 0.238367 3.35839e-06)
(0.0640492 0.234888 2.07572e-06)
(0.0329019 0.119316 2.21266e-06)
(0.0338227 0.122681 2.70988e-06)
(-0.00175384 -0.00851325 0.000139598)
(-0.0131147 -0.0638066 0.000642014)
(0.168379 0.614844 -0.000888957)
(0.0983381 0.354492 -0.000147589)
(0.101489 0.509392 -5.83204e-05)
(-0.00596166 -0.0419141 2.99911e-06)
(-0.00542733 -0.0381557 -3.04161e-06)
(0.163205 0.819693 -9.75599e-05)
(-0.00978503 -0.0677088 0.000224952)
(0.0970048 0.484196 -0.00045004)
(0.0901221 0.450252 -0.000536837)
(0.107772 0.44032 -0.000343097)
(0.0845381 0.314259 -1.9027e-05)
(0.0841627 0.312857 -4.04739e-05)
(-0.0653907 1.59658 -0.0001608)
(1.38718 0.922257 -0.000737445)
(-0.0611742 1.50359 8.10311e-05)
(-0.00277044 1.376 -0.000136708)
(0.0747681 1.13061 4.33496e-05)
(0.0679209 1.02568 -0.000169671)
(-0.00261242 1.30084 -1.55745e-05)
(0.098715 0.387842 -1.66586e-05)
(0.159505 0.945806 -9.37262e-05)
(0.00817082 0.0297592 4.26503e-05)
(-0.0229533 0.570318 -0.000601413)
(0.932306 0.636154 0.0779015)
(-0.000729808 0.535913 -0.000860432)
(0.0271949 0.412918 -0.000541678)
(0.12778 0.747748 0.00717255)
(-0.0146249 -0.146329 7.9896e-06)
(-0.0144442 -0.13292 9.95171e-06)
(-0.0988274 -0.794879 0.00173863)
(-0.0114312 -0.0906558 3.85087e-06)
(-0.0129401 -0.106978 7.83155e-06)
(1.33313 0.882577 -0.00228713)
(1.28635 0.851878 -0.00199237)
(0.346208 2.05233 -0.00503338)
(0.260717 1.54002 -0.0033585)
(-0.110942 -0.893249 0.000528109)
(-0.0554995 -0.345439 0.000811498)
(-0.0547702 -0.343126 0.000813166)
(-0.0412677 -0.242187 0.00059288)
(0.156412 0.674711 -0.00158333)
(0.174943 0.756263 -0.001732)
(0.76288 1.3098 -5.62321e-05)
(0.763307 1.30855 -0.000330724)
(0.0973939 0.48879 -5.16145e-05)
(0.0901345 0.432946 -3.34745e-05)
(-0.000264348 -0.00311988 -8.38174e-07)
(0.00146733 0.00742037 -1.53203e-07)
(0.00149948 0.0076033 -1.92922e-06)
(-0.000255298 -0.00305688 2.24067e-07)
(0.1039 0.521582 -3.6267e-05)
(0.0964145 0.497193 -3.81689e-05)
(-0.0200873 -0.164156 0.000400863)
(-0.0134272 -0.0961997 0.000253281)
(-0.020257 -0.144647 0.000352326)
(-0.012243 -0.084413 0.000237345)
(-0.0179945 -0.123411 0.000258302)
(0.0855421 0.42677 -0.00100881)
(-0.0201043 -0.182877 0.000429578)
(-0.024754 -0.34023 0.00104569)
(-0.0209607 -0.294359 9.97821e-05)
(0.080218 0.400577 -0.000918204)
(1.37396 0.922738 -0.00268872)
(0.095066 0.560435 -4.93579e-05)
(0.104652 0.585246 -2.35987e-05)
(0.106473 0.595252 -5.20778e-05)
(0.184199 1.2818 -9.6742e-05)
(0.0982262 0.582542 -4.1212e-05)
(0.151497 0.898656 -6.493e-05)
(0.0197996 0.0186946 1.65602e-05)
(0.346105 -0.127538 0.00347259)
(0.36314 -0.143969 0.00171049)
(0.0171799 0.0165196 -4.48246e-05)
(-0.00599978 -0.0258835 0.000137814)
(0.022806 0.0840938 -0.000136197)
(0.00329006 0.0115466 4.79514e-05)
(0.0232029 0.0934533 -5.12839e-05)
(-0.00894339 -0.039963 0.000114302)
(-0.00105597 -0.00667219 9.69259e-05)
(0.00502383 0.0210949 2.85299e-06)
(-0.017767 -0.0859527 0.000206086)
(-0.00105488 0.732865 -0.00149668)
(0.0408017 0.609217 -0.0013098)
(-0.00154012 0.981565 -0.00205816)
(0.0319062 0.482881 -0.00135828)
(-0.0347973 0.870382 -0.00198158)
(1.11369 0.749133 -0.00171167)
(-0.0471547 1.16704 -0.0024204)
(0.109889 0.650209 -0.00242225)
(0.155966 0.610696 -0.0016143)
(0.117433 0.45921 -0.000970105)
(0.108078 0.394333 -0.000810568)
(0.1526 0.557467 -0.0011623)
(0.0628324 0.226681 -0.000463466)
(0.0857086 0.309735 -0.000713247)
(-0.0131844 -0.148545 -2.42126e-07)
(-0.0169421 -0.236735 1.32023e-05)
(-0.0104799 -0.0807286 3.6359e-06)
(-0.00849518 -0.0618787 3.7264e-06)
(0.000426985 0.000840464 0.540931)
(-0.013013 -0.102377 0.000284283)
(0.000399135 0.000804262 0.514374)
(-0.0144698 -0.110237 0.000314384)
(0.000700601 0.00106068 0.585269)
(-0.0131196 -0.13095 0.000424726)
(0.000937792 0.00151567 0.586265)
(-0.0122337 -0.140836 0.00125054)
(0.0525613 0.247821 -2.79491e-05)
(0.0391979 0.17827 -8.34174e-06)
(0.0395108 0.179714 -2.05292e-05)
(0.0464944 0.20249 -1.64746e-05)
(0.0457584 0.20155 -1.05891e-05)
(0.0459944 0.202602 -2.10599e-05)
(0.0645447 0.236655 3.48903e-06)
(0.0240546 0.119637 -1.32267e-05)
(0.0215042 0.109101 -1.19228e-05)
(0.033262 0.120622 5.61469e-06)
(0.0284328 0.0999836 1.5159e-06)
(-0.00624075 -0.0286029 0.000229545)
(-0.00534556 -0.0254919 0.000257004)
(0.000328655 0.00063446 0.323822)
(0.00033197 0.000602236 0.317035)
(0.000323668 0.000589535 0.313411)
(0.000301294 0.00060275 0.359577)
(0.092551 0.315334 0.000112082)
(0.158286 0.553399 0.00345025)
(-2.65791e-05 0.000662395 0.337998)
(0.000255506 0.000184885 0.305236)
(0.000121171 0.000219797 0.108412)
(0.0809659 0.284197 -9.57775e-05)
(0.285359 0.662915 -5.95145e-06)
(0.167799 0.591568 5.78363e-05)
(0.166096 0.585604 -3.43575e-05)
(0.0793454 0.370462 -1.92246e-05)
(0.0801475 0.374302 -2.99564e-05)
(0.140677 0.671839 -4.33111e-05)
(0.0744623 0.331524 -2.17918e-05)
(0.078637 0.356799 -1.40592e-05)
(0.0804462 0.365011 -2.58358e-05)
(0.0741547 0.330178 -7.79946e-06)
(-0.0047269 -0.0332836 1.10237e-06)
(-0.00588887 -0.041406 1.36967e-06)
(0.149904 0.793984 -3.95917e-05)
(0.272952 0.470734 0.0111495)
(0.000795642 0.00317964 0.876247)
(0.00035287 0.00152848 0.417925)
(0.0499506 0.145303 1.54481e-05)
(-0.0118109 -0.0736782 0.000292794)
(-0.011884 -0.0750124 0.000438808)
(0.000801129 0.00165303 0.6876)
(0.000259048 0.000223466 0.313023)
(0.0961859 0.493628 0.000522271)
(0.000422822 0.000175662 0.377263)
(0.140001 0.735742 0.00467891)
(0.000464568 0.000800097 0.350529)
(0.00031831 0.000627 0.333086)
(-0.00043344 0.000306108 0.356613)
(6.94283e-05 0.00032402 0.113008)
(0.0803379 0.383761 -0.000488568)
(0.102939 0.478172 0.000435151)
(0.000400613 0.000170392 0.207172)
(9.54063e-05 0.000423246 0.108254)
(0.168942 0.709915 0.00121681)
(0.0845562 0.31432 -2.339e-05)
(0.0805298 0.308271 -2.39672e-05)
(0.0960154 0.391414 -3.67377e-05)
(0.0673964 0.271449 -1.04636e-05)
(-0.877557 2.80554 -0.0215392)
(-0.0612404 1.50041 -7.11015e-05)
(-0.190216 1.77797 0.000767723)
(0.0744197 1.12313 -8.76675e-05)
(0.058797 1.25701 -5.52959e-05)
(-0.00259813 1.29211 -4.71396e-05)
(0.0334819 1.26122 -3.80037e-05)
(0.108508 1.19047 -5.36799e-05)
(0.140734 1.81659 -7.4072e-05)
(0.141258 1.82261 -8.47478e-05)
(0.107078 1.17553 -6.72421e-05)
(0.121753 1.24311 -7.414e-05)
(0.124143 1.15506 -6.41064e-06)
(0.128065 1.1912 -9.92201e-05)
(0.118016 1.2051 -7.58891e-06)
(0.0725645 0.300678 -3.53211e-06)
(0.0655727 0.2602 -2.7225e-06)
(0.0995114 0.391014 2.37383e-06)
(0.113957 0.771642 -7.91908e-05)
(0.107922 0.679585 -4.6134e-05)
(-0.000508977 0.000199331 0.575816)
(0.000713261 0.002514 0.90779)
(0.00161535 0.00556196 0.000126797)
(0.000180264 0.00289935 0.75073)
(0.00279946 0.00982689 0.000121499)
(0.00033526 0.0100612 0.275745)
(-0.0611644 0.587038 -0.00118627)
(0.00730552 -0.0027592 1.75698)
(0.00028766 0.000535731 0.305675)
(0.014243 0.520237 -0.00089269)
(0.000681064 9.03154e-05 0.246543)
(0.0233886 0.489338 -0.000707911)
(0.0617138 0.530878 -0.00088941)
(0.0614335 0.520909 -0.000847576)
(0.000314353 0.000439661 0.246122)
(0.000340485 0.000480535 0.270758)
(0.0578675 0.533796 -0.000789971)
(0.0526031 0.530573 -0.00049613)
(0.0476019 0.52093 0.000837955)
(1.97952e-05 -0.000627524 0.226352)
(-0.0193594 -0.106256 0.00119995)
(4.31455e-05 0.000784193 0.509709)
(0.0917202 0.509981 -0.000444835)
(0.000323144 0.000604246 0.323764)
(0.000326243 0.000607828 0.325104)
(0.480362 -0.191379 -0.00386785)
(0.22429 0.212064 0.00217115)
(0.000176764 0.00010732 0.0793775)
(-0.0526242 -0.517626 0.000834093)
(-0.068956 -0.557142 0.000904798)
(-0.0552085 -0.542447 0.00106182)
(-0.069208 -0.559139 0.000924519)
(-0.0743646 -0.600048 0.00118366)
(-0.0589119 -0.578228 0.00121721)
(-0.0825154 -0.66489 0.00141066)
(0.177399 0.767723 -0.0017669)
(0.446651 2.18695 -0.00484193)
(0.180872 0.78318 -0.00179613)
(0.426148 2.08598 -0.00463397)
(-0.0660017 -0.534152 0.000308754)
(-0.0411342 -0.256611 0.000582916)
(-0.104763 -0.842195 0.00185548)
(-0.0468657 -0.291906 0.000666077)
(1.38829 0.920025 -0.000649305)
(1.39124 0.921959 -0.000317171)
(0.210892 0.915401 -0.000240907)
(0.660989 3.24365 -0.00168347)
(0.58823 2.8853 -0.000848781)
(0.214516 0.931308 -0.000441928)
(0.457074 2.70948 -0.00084115)
(0.457251 2.71092 -0.00153313)
(-0.000819881 -0.00838197 5.82494e-06)
(-0.000353862 -0.00612074 2.6282e-06)
(0.0223907 0.126699 -6.79668e-05)
(0.0228334 0.128697 -4.51173e-05)
(0.0524991 0.227988 -0.000385216)
(0.0388242 0.17651 -0.000297057)
(0.0626529 0.272826 -0.000499618)
(0.0305375 0.13795 -0.000199816)
(-0.108667 -0.874375 0.0019727)
(-0.0688996 -0.500651 0.00113093)
(0.0204948 0.0970237 -8.92178e-05)
(-0.00931517 -0.0520987 0.000178432)
(0.0629868 0.229666 -0.000540209)
(0.0709573 0.258696 -0.000585011)
(0.034195 0.123254 -0.000291714)
(0.039614 0.142779 -0.000323285)
(0.274727 1.24248 -0.000305751)
(0.172085 0.746464 -7.82894e-05)
(0.30868 1.45906 -0.000403856)
(0.145293 0.729141 -0.00012374)
(-0.0188176 -0.158408 0.000176972)
(-0.04288 -0.31794 0.00033164)
(-0.00697173 -0.0509494 -1.18768e-05)
(0.000573883 -0.00159513 4.73583e-07)
(-0.0183577 -0.125875 3.49256e-05)
(-0.024378 -0.170583 8.70398e-05)
(0.0967745 0.395698 0.000133481)
(0.0837794 0.311457 -8.96529e-05)
(0.0839998 0.31226 -5.56606e-05)
(0.108166 0.443774 -0.000708532)
(0.165099 0.725204 -0.000211697)
(0.14168 0.652927 -5.63297e-05)
(0.172454 0.75809 -0.00021219)
(0.181353 0.845751 -6.75227e-05)
(-0.00285616 1.38815 -0.000143872)
(0.0577716 0.872452 -0.00025332)
(-0.00284022 1.34052 -0.000355653)
(0.0634874 0.958309 -0.000180368)
(-0.0660948 1.6147 -0.00016602)
(1.38948 0.922102 -0.00040994)
(-0.0652258 1.59383 -0.000406688)
(0.479617 4.11267 -0.00170586)
(0.10221 0.40166 -3.52542e-05)
(0.0768617 0.301945 -0.000123327)
(0.0784759 0.287637 -1.39389e-05)
(0.0647109 0.237298 -1.55196e-07)
(0.0568435 0.297974 -0.000120346)
(0.183787 0.907168 -0.0011335)
(0.0217253 0.121022 -6.9443e-05)
(0.0472676 0.253633 -7.24671e-05)
(0.825779 5.16623 0.00249698)
(0.383989 2.56538 0.000552837)
(0.0449341 0.162881 2.6654e-06)
(0.0340308 0.123437 2.50497e-06)
(1.27068 0.844165 -0.000510796)
(0.0903016 0.625155 -0.00140901)
(0.249294 0.23383 -0.000437296)
(0.499135 -0.20697 0.00013622)
(0.236201 0.222241 -0.000495251)
(0.51762 -0.215002 -0.000124195)
(0.0644733 0.236432 1.67893e-06)
(0.0295686 0.10399 4.37815e-06)
(0.0337473 0.122403 6.44865e-06)
(0.285268 0.662709 -2.37476e-05)
(0.275297 0.808123 -8.17637e-05)
(0.000651442 0.00190348 0.740458)
(0.000248476 0.000836866 0.36624)
(0.000418994 0.00018365 0.386319)
(-0.20027 1.85638 -0.000204217)
(-0.0635955 1.55473 -7.46944e-05)
(1.38269 0.922639 -0.00143105)
(0.0218011 0.0205834 1.91808e-05)
(0.355853 -0.146252 0.000135009)
(0.361514 -0.146974 0.000582299)
(0.0218459 0.0205951 1.33968e-05)
(0.00037093 0.000706482 0.553611)
(0.000295432 0.00034868 0.384049)
(0.000285097 0.000504645 0.344717)
(0.000478829 0.000820965 0.369075)
(-0.0898161 -0.723055 0.00156344)
(1.37037 0.90731 -0.00236971)
(1.35767 0.89888 -0.00234013)
(1.33128 0.881369 -0.00228501)
(1.35695 0.898397 -0.00233842)
(0.396396 1.93924 -0.00431845)
(0.174303 0.753696 -0.00173338)
(0.17611 0.762009 -0.00175398)
(0.418484 2.04828 -0.00455741)
(0.270122 1.59587 -0.0035146)
(0.288832 1.70673 -0.00372346)
(-0.0228779 -0.135409 0.00032315)
(-0.0296528 -0.174601 0.000414966)
(-0.0543249 -0.337985 0.000783733)
(-0.0489039 -0.304458 0.000697451)
(-0.0393521 -0.230869 0.000556229)
(-0.0321987 -0.189329 0.000451011)
(0.253789 2.15877 -0.00463977)
(0.240904 2.0485 -0.00451113)
(0.0260616 0.0962043 -0.000166674)
(0.0246379 0.0995706 -0.000203413)
(0.0364702 0.148297 -6.22707e-05)
(0.0341747 0.126383 -0.000244566)
(0.00243354 0.0098871 5.09464e-05)
(0.0294842 0.126358 -0.000114798)
(0.0386111 0.166886 -0.000242036)
(0.0238327 0.106325 -8.69743e-05)
(0.0421921 0.156211 -0.00031843)
(0.0466498 0.190224 -0.000124369)
(0.0364714 0.134928 -0.000266187)
(0.0426486 0.636517 -0.00135532)
(-0.00162349 1.02474 -0.00214827)
(-0.00181297 1.12929 -0.0023651)
(0.0469434 0.700874 -0.00149683)
(-0.0545551 1.34899 -0.00280458)
(1.32022 0.874012 -0.00225656)
(-0.05704 1.41008 -0.00293471)
(-0.0489883 1.21212 -0.00251764)
(-0.0533538 1.31948 -0.0027429)
(1.3176 0.872267 -0.0022526)
(-0.00186646 1.15762 -0.00242427)
(0.0512655 0.766519 -0.00162978)
(-0.00197255 1.21415 -0.00254465)
(0.0482534 0.72092 -0.00151107)
(0.226608 1.33862 -0.0028373)
(0.411483 2.56056 -0.00765741)
(0.237315 1.5804 -0.00346908)
(0.247064 1.45879 -0.00326229)
(0.405353 2.52772 -0.00548611)
(0.377684 2.3542 -0.00522895)
(0.195523 1.30002 -0.00383393)
(-0.0807681 -0.59294 0.000939245)
(-0.10182 -0.819599 0.0018646)
(-0.0658359 -0.437083 0.00100317)
(-0.0557324 -0.34736 0.000837379)
(-0.0791753 -0.531101 0.00113273)
(-0.0520939 -0.325537 0.000808224)
(-0.0224257 -0.125033 0.000339886)
(-0.0431475 -0.253621 0.000647006)
(0.00705269 0.0284662 0.000197941)
(-0.0457802 -0.27038 0.00068138)
(0.230674 1.03648 -0.00246517)
(0.178813 0.772549 -0.00174559)
(0.237033 1.11688 -0.00250812)
(0.176561 0.763059 -0.00173469)
(0.224061 1.01011 -0.00228756)
(0.241121 1.13509 -0.00290349)
(0.367304 1.795 -0.0041385)
(0.105273 0.411579 -0.000882955)
(0.0888214 0.347175 -0.000776872)
(0.0949218 0.346231 -0.000729862)
(0.0746881 0.272305 -0.000605861)
(0.0862006 0.336963 -0.000767707)
(0.0801487 0.31337 -0.000730024)
(0.0550769 0.198638 -0.000415686)
(0.0421557 0.151945 -0.000337884)
(0.126879 0.294088 -0.000590235)
(0.108017 0.250259 -0.000465195)
(-0.0206705 -0.156654 0.000390623)
(-0.0180684 -0.12924 0.000329563)
(0.0811873 0.414947 -0.00121795)
(0.0857265 0.427881 -0.000932578)
(0.124095 0.655067 -0.00207592)
(-0.019294 -0.190668 0.000380054)
(-0.0198895 -0.18133 0.000435963)
(-0.0172157 -0.189419 0.000131773)
(-0.0212742 -0.29504 0.000625121)
(0.0770416 0.368722 -0.000959509)
(0.0816129 0.407399 -0.000876875)
(-0.00360903 -0.0153607 8.98847e-05)
(0.00673205 0.0261122 5.80613e-05)
(3.05326e-05 -0.000677731 7.33581e-05)
(0.0136745 0.050131 -3.59405e-05)
(0.0176833 0.648604 -0.00134815)
(-0.00126913 0.846468 -0.00178707)
(0.0269525 0.568292 -0.00125724)
(0.0361498 0.540917 -0.00123663)
(-0.105821 1.00655 -0.00352373)
(-0.0411307 1.02074 -0.00217908)
(1.23448 0.824407 0.00103868)
(-0.464928 1.51328 -0.00279181)
(-0.0450091 1.11487 -0.00233178)
(-0.141447 1.31695 -0.00267352)
(-0.011575 -0.060525 0.000196565)
(-0.00829678 -0.0427588 0.000150942)
(-0.0101101 -0.0518368 0.000176956)
(-0.00972152 -0.0510479 0.000171034)
(-0.0247157 -0.135681 0.000236516)
(0.000733564 0.00110067 0.39209)
(0.0584737 0.393377 -0.000874351)
(0.0923436 0.639419 -0.00153339)
(0.0605737 0.407225 -0.000967881)
(0.12622 0.46068 -0.000929863)
(0.153097 0.559058 -0.00113865)
(0.0727148 0.262423 -0.000525666)
(0.0614649 0.21502 -0.000438521)
(0.0808095 0.283219 -0.000757249)
(0.0887165 0.32037 -0.000663009)
(0.445804 -0.186306 -0.0026329)
(0.213057 0.195654 0.000479268)
(0.25983 0.241673 -0.000254891)
(0.520515 -0.217164 -0.000947639)
(0.22548 0.9775 -0.00216772)
(0.561071 2.74982 -0.00595371)
(0.226637 0.982703 -0.00213738)
(0.548232 2.68663 -0.00586983)
(-0.0663596 -0.536838 0.000435344)
(-0.00143683 -0.012137 1.3387e-05)
(-0.00119367 -0.0106351 9.86101e-06)
(0.201289 0.873658 -0.000683554)
(0.660804 3.24165 -0.00307581)
(0.233159 1.01196 -0.000917924)
(-0.0608462 -0.442336 0.000975149)
(0.177249 0.77949 -0.000384744)
(0.14426 0.665852 -0.000373306)
(0.177664 0.78135 -0.000442515)
(0.144027 0.66472 -0.000329571)
(0.0670948 0.245878 -0.000141138)
(0.0671543 0.24613 -0.000122935)
(-0.0332812 -0.244212 0.000128532)
(0.163168 0.80769 -0.000448768)
(0.0641157 0.337231 -0.000185655)
(0.0362451 0.13137 -7.96002e-05)
(0.0399024 0.144651 -7.50087e-05)
(1.39133 0.922139 -0.000287218)
(0.034941 0.0328644 4.31853e-06)
(0.347821 -0.144339 3.4801e-06)
(0.0330739 0.0310938 1.11611e-06)
(0.349669 -0.145043 -9.86693e-07)
(-0.0200524 -0.126797 0.000281481)
(-0.0225376 -0.142102 0.000317301)
(-0.0390704 -0.243904 0.000553393)
(-0.0947196 -0.76214 0.00165883)
(-0.0340854 -0.213211 0.000481799)
(0.182748 0.791468 -0.00181427)
(0.194311 0.84228 -0.00191672)
(0.105651 0.462454 -0.000960178)
(0.0795814 0.365371 -0.000755759)
(0.109176 0.477992 -0.000996662)
(0.0762449 0.349921 -0.000718839)
(0.0459154 0.209468 -0.000382501)
(0.071315 0.311056 -0.000593501)
(0.0782372 0.34159 -0.000669321)
(0.0518165 0.236839 -0.000451483)
(0.0573295 0.209715 -0.000524129)
(0.0557986 0.203979 -0.000509172)
(0.0612195 0.223249 -0.000530556)
(0.0574379 0.209555 -0.000509551)
(0.0157571 0.0808333 -0.000145971)
(0.0716266 0.351594 -0.0007091)
(-0.0683671 -0.496647 0.00111569)
(0.0282062 0.135619 -0.000192713)
(-0.00547609 -0.031605 0.000122951)
(0.0353912 0.171461 -0.000283864)
(0.0311112 0.112553 -0.000286922)
(0.0297917 0.107696 -0.000274408)
(0.0329845 0.118903 -0.000284928)
(0.0304405 0.109785 -0.000270707)
(1.33204 0.88185 -0.00228257)
(1.30041 0.86092 -0.00214949)
(0.128712 0.121242 -0.000305106)
(0.359144 -0.149124 0.000202445)
(0.370351 -0.153776 0.000210464)
(0.116645 0.109864 -0.000280263)
(0.477957 -0.198214 0.000219023)
(0.219938 0.20714 -0.000487065)
(0.205737 0.193831 -0.000462607)
(0.458064 -0.190071 0.000225113)
(0.000110537 -0.0107022 1.09307e-05)
(-4.27063e-05 -0.0219734 2.9942e-05)
(-0.052315 -0.514777 0.000705672)
(-3.92029e-05 -0.0216905 3.53e-05)
(-0.000175899 -0.0317937 4.33323e-05)
(-0.0680804 -0.550285 0.000761211)
(-0.0537151 -0.52804 0.000969487)
(-0.000118276 -0.0274167 5.64391e-05)
(-3.34296e-05 -0.0211926 4.10799e-05)
(-0.0709352 -0.572796 0.00104856)
(-0.0713817 -0.576342 0.00106644)
(-5.70449e-05 -0.0228173 5.25624e-05)
(-0.0575384 -0.564965 0.00116252)
(-0.000196976 -0.0331374 7.19353e-05)
(-0.0791044 -0.637752 0.00132245)
(1.38566 0.917538 -0.00239357)
(1.38402 0.916433 -0.00239675)
(1.38194 0.915031 -0.00239617)
(1.38603 0.917758 -0.00240023)
(0.20368 0.883297 -0.0019672)
(0.520781 2.55209 -0.00560783)
(0.538507 2.63908 -0.00576684)
(0.1877 0.813873 -0.0018345)
(0.178206 0.771351 -0.00177271)
(0.235134 1.061 -0.00240211)
(0.26611 1.25526 -0.00280094)
(0.440124 2.15481 -0.00477506)
(0.179647 0.777728 -0.00178508)
(0.24233 1.09389 -0.00246753)
(0.255601 1.20532 -0.00269915)
(0.432664 2.11808 -0.00470593)
(1.38998 0.921064 -0.00122523)
(1.38472 0.917617 -0.000991417)
(1.38546 0.918146 -0.000695487)
(1.38373 0.91697 -0.000954778)
(0.462094 2.7394 -0.00172838)
(0.454127 2.69169 -0.00212518)
(-0.000933056 -0.0090455 6.69398e-06)
(-0.0662514 -0.536009 0.000403169)
(-0.00110549 -0.0100914 8.80965e-06)
(0.0218041 0.123308 -0.000122592)
(0.0220515 0.124758 -0.000104329)
(0.0222745 0.126054 -7.53811e-05)
(0.0221369 0.125258 -9.75773e-05)
(0.218033 0.94643 -0.000540282)
(0.20202 0.876979 -0.000638893)
(0.631304 3.0972 -0.00236583)
(-0.0547209 -0.363613 0.000810891)
(-0.0429385 -0.267723 0.000608716)
(-0.0644051 -0.467982 0.00103745)
(-0.0449818 -0.280304 0.000638473)
(-0.0594319 -0.394605 0.000885171)
(0.468903 4.01456 -0.00211986)
(0.50636 4.33469 -0.00181654)
(0.0836888 0.311119 -0.000102428)
(0.108184 0.443874 0.000420416)
(0.108239 0.444113 -0.000768647)
(0.0835469 0.310599 -0.000136885)
(0.140576 0.648135 -0.000270287)
(0.175865 0.773258 -0.000272652)
(0.17711 0.778837 -0.000331577)
(0.143683 0.662975 -0.000286007)
(0.10817 0.44383 0.000354594)
(0.0833567 0.309899 -0.000182149)
(0.108079 0.443453 -0.00083145)
(0.083471 0.31032 -0.000149624)
(0.0568131 0.858577 -0.000257423)
(-0.00280312 1.31995 -0.000398979)
(-0.00273811 1.28208 -0.000538679)
(0.0563212 0.851563 -0.00035465)
(-0.0627875 1.53345 -0.000691997)
(1.3896 0.920892 -0.000519655)
(-0.0599856 1.46539 -0.000825333)
(-0.0646224 1.57888 -0.000464947)
(-0.0632233 1.54417 -0.000635534)
(1.39123 0.92197 -0.000462004)
(-0.00272732 1.27597 -0.000581195)
(0.0744109 1.12459 -0.000650847)
(-0.0025899 1.21865 -0.000695575)
(0.0588675 0.890212 -0.000404201)
(0.283137 1.28089 -0.000330241)
(0.214037 0.92913 -0.000304241)
(0.65787 3.22816 -0.00129325)
(0.379057 1.79262 -0.000896819)
(0.314558 1.48721 -0.000369401)
(0.63171 3.09931 -0.00109729)
(0.216237 0.938748 -0.000378696)
(0.321344 1.45404 -0.000700014)
(0.0708085 0.278138 -0.000121852)
(0.0619896 0.24328 -9.46594e-05)
(0.0712592 0.261205 -5.19493e-05)
(0.0657531 0.241006 -0.000109428)
(0.0616703 0.242031 -9.49003e-05)
(0.742573 4.64517 -0.00184131)
(0.484288 2.87083 -0.00110198)
(0.751678 4.70375 -0.0018567)
(0.418747 2.80059 -0.00139033)
(0.45259 3.02613 -0.0012037)
(0.471496 2.79535 -0.00125022)
(-0.0313751 -0.23094 8.36012e-05)
(-0.0197637 -0.133893 7.22807e-05)
(-0.000713227 -0.00780693 4.7758e-06)
(-0.0189716 -0.129298 4.79455e-05)
(-0.000634 -0.00750188 4.21075e-06)
(0.0633632 0.33274 -0.000115187)
(0.160783 0.795031 -0.00027693)
(0.163206 0.807557 -0.000341816)
(0.0483984 0.260814 -0.000142285)
(0.0224599 0.127027 -6.03075e-05)
(0.0484018 0.260316 -9.23883e-05)
(0.0225403 0.127325 -5.19254e-05)
(0.0436749 0.158328 -7.91163e-06)
(0.0400182 0.145083 -6.87184e-05)
(0.0651731 0.237622 -0.000552881)
(0.0676361 0.246585 -0.000566383)
(0.0315352 0.110204 -0.000261826)
(0.0356854 0.128619 -0.000300467)
(0.0374302 0.130808 -0.000295402)
(0.0373718 0.134692 -0.000309979)
(0.274515 0.805925 -0.000223791)
(0.275078 0.807495 -0.000144447)
(0.285425 0.663168 -0.000147471)
(0.285497 0.663323 -0.000128316)
(-0.201856 1.87078 -0.00023513)
(-0.0661787 1.61785 -0.0002897)
(1.39052 0.921978 -0.000312289)
(-0.861565 2.80205 -0.000601327)
(-0.0658152 1.60861 -0.000351907)
(-0.201175 1.86328 -0.000453392)
(0.075889 0.27815 -2.87035e-06)
(0.0683809 0.250689 4.64308e-06)
(0.0390801 0.141637 4.62837e-06)
(0.0397266 0.139619 6.0809e-06)
(0.0298261 0.104894 4.33436e-06)
(0.0351921 0.127601 4.51402e-06)
(0.410757 2.43041 -0.0052813)
(0.38726 2.2911 -0.00501567)
(0.00115608 0.00364329 5.29268e-06)
(-0.00164517 -0.0125685 4.17986e-05)
(-0.0268271 -0.168516 0.00037868)
(-0.0236539 -0.148977 0.000332993)
(-0.00648709 -0.0405851 0.000105447)
(-0.00291713 -0.0199295 5.81735e-05)
(1.36887 0.906327 -0.0023677)
(1.37756 0.912101 -0.00238599)
(1.38316 0.915832 -0.00239815)
(1.37821 0.912539 -0.00238728)
(-0.0204458 -0.12134 0.00029074)
(-0.0147345 -0.0883014 0.000214282)
(0.35128 2.07722 -0.00452487)
(0.377318 2.23203 -0.00488683)
(-0.0932505 -0.75043 0.00163066)
(-0.0282629 -0.177358 0.000398872)
(-0.032334 -0.202427 0.000456989)
(-0.00812864 -0.0500831 0.00012683)
(-0.0127131 -0.0766074 0.00018763)
(0.196238 0.850681 -0.00191936)
(0.51266 2.51222 -0.00554318)
(0.188273 0.816279 -0.0018395)
(0.477424 2.33884 -0.00518786)
(0.283226 2.41005 -0.00519804)
(0.291522 2.48104 -0.00536208)
(0.0671972 0.274716 -0.000221355)
(0.0543562 0.201474 -0.000426695)
(0.0571592 0.211903 -0.000451341)
(0.0633031 0.258704 -0.000865343)
(0.10071 0.440673 -0.00090855)
(0.0677166 0.31045 -0.000626809)
(0.0963295 0.421364 -0.000861755)
(0.0717571 0.329146 -0.000671429)
(0.0604176 0.224029 -0.000479891)
(0.0580924 0.215376 -0.000459745)
(0.0719491 0.29426 -0.000242536)
(-0.0022806 1.37488 -0.00288572)
(0.0575182 0.860531 -0.00182789)
(0.0588102 0.879969 -0.00186886)
(-0.00222894 1.34835 -0.00282887)
(-0.0642157 1.58633 -0.00330822)
(1.36733 0.90529 -0.00236043)
(-0.0649331 1.60385 -0.00334747)
(-0.00229889 1.38399 -0.00290446)
(0.0602695 0.901957 -0.00191586)
(-0.00232906 1.39723 -0.00293434)
(0.0592348 0.886363 -0.00188251)
(-0.0637898 1.57588 -0.0032866)
(1.36473 0.903566 -0.00235495)
(-0.0626132 1.54701 -0.00322453)
(0.317338 2.70151 -0.00580565)
(0.311476 2.65139 -0.00570204)
(0.0440103 0.162978 -0.000334964)
(0.0483109 0.178981 -0.000373168)
(0.0568151 0.232026 -0.000767247)
(0.0531509 0.196989 -0.000416157)
(0.0614867 0.251235 -0.000195851)
(0.0497655 0.184392 -0.000385978)
(0.0849245 0.371077 -0.000741947)
(0.0623252 0.285499 -0.000568447)
(0.0901351 0.394056 -0.000797492)
(0.0576022 0.263634 -0.0005158)
(-0.0577172 1.42666 -0.00297044)
(-0.0599722 1.48217 -0.00308544)
(1.345 0.890467 -0.00231179)
(0.052101 0.779112 -0.0016569)
(-0.00200589 1.23015 -0.00257932)
(-0.00210648 1.28525 -0.00269374)
(0.0544309 0.814097 -0.00173003)
(-0.00213716 1.3014 -0.00272811)
(0.0569652 0.85219 -0.00181067)
(0.0552246 0.826025 -0.00175465)
(-0.00220509 1.33696 -0.00280535)
(-0.0606433 1.49866 -0.00312049)
(1.35035 0.89401 -0.0023219)
(-0.0621378 1.53537 -0.00320069)
(0.0747095 0.292634 -0.000700809)
(0.0749351 0.293381 -0.000702398)
(0.0551467 0.201409 -0.000500293)
(0.0554219 0.202555 -0.000505392)
(0.0749349 0.293698 -0.000702633)
(0.239894 1.13064 -0.00254312)
(0.403447 1.97411 -0.00442424)
(0.225142 1.0152 -0.0023036)
(0.17425 0.753643 -0.00174166)
(0.175255 0.758164 -0.00174879)
(0.232235 1.04777 -0.00237438)
(0.411516 2.01395 -0.00448163)
(0.251444 1.18558 -0.00265943)
(0.0763044 0.298501 -0.000708457)
(0.0759116 0.297013 -0.000706838)
(0.0749396 0.29335 -0.000701819)
(0.0551897 0.20152 -0.000499375)
(0.0566584 0.206751 -0.000505724)
(0.263294 1.75372 -0.00381783)
(0.420074 2.61996 -0.00572305)
(0.276311 1.63249 -0.00357334)
(0.282851 1.67128 -0.00365614)
(0.450495 2.81017 -0.00611227)
(0.440756 2.74935 -0.00598788)
(0.26994 1.79812 -0.00390102)
(-5.16814e-05 -0.00302492 3.71581e-05)
(-0.0249568 -0.147438 0.000350896)
(0.0553523 0.270729 -0.000520873)
(0.00772861 0.0383743 -4.71633e-05)
(-0.0274102 -0.16163 0.000384166)
(-0.00766433 -0.0444092 0.000133872)
(-0.0650322 -0.431586 0.000982798)
(-0.0525715 -0.327091 0.000754851)
(-0.0655709 -0.476375 0.00105967)
(-0.0507817 -0.31603 0.000725054)
(-0.0610309 -0.405132 0.000912145)
(0.46174 2.88051 -0.00625859)
(0.471121 2.93921 -0.00637869)
(0.293524 1.95576 -0.00422639)
(0.287513 1.91558 -0.00414282)
(-0.0195327 -0.109087 0.000293003)
(-0.0369556 -0.216904 0.000518548)
(0.048675 0.237546 -0.000442441)
(0.00441373 0.0208405 -6.06361e-06)
(0.0424565 0.206624 -0.000370045)
(-0.0345428 -0.202905 0.000483047)
(-0.0106937 -0.0608807 0.000172829)
(0.0290414 0.104868 -0.000265667)
(0.0294532 0.106443 -0.000271102)
(0.0290423 0.104842 -0.000264774)
(0.0299218 0.107937 -0.000268146)
(0.122323 0.358133 -0.000725325)
(0.148447 0.434832 -0.000915495)
(0.196958 0.456845 -0.00100676)
(0.191699 0.444638 -0.000977807)
(0.164148 0.380682 -0.00082523)
(0.172382 0.399805 -0.000874625)
(0.155477 0.455479 -0.000966113)
(-0.611715 1.99256 -0.00395407)
(1.32703 0.878525 -0.00226925)
(-0.0563124 1.3922 -0.00289614)
(-0.169447 1.5767 -0.00324412)
(-0.584204 1.90312 -0.0038379)
(-0.513764 1.67305 -0.00322264)
(-0.53209 1.73309 -0.00344445)
(-0.146672 1.36552 -0.00280495)
(-0.0504954 1.24919 -0.00259282)
(1.31068 0.86766 -0.00221486)
(-0.566911 1.84693 -0.00367016)
(0.0868922 0.316867 -0.000675894)
(0.0799373 0.291483 -0.000638455)
(0.142137 0.133901 -0.000332664)
(0.400064 -0.166117 0.000230803)
(0.384412 -0.159615 0.000220367)
(0.15605 0.14702 -0.000359297)
(0.053686 0.187749 -0.000389819)
(0.0500933 0.180608 -0.000382894)
(0.0455431 0.164178 -0.000358389)
(0.0401824 0.140434 -0.000310658)
(0.187111 0.1763 -0.000423642)
(0.418085 -0.173589 0.000232014)
(0.436236 -0.181089 0.000234358)
(0.171894 0.16196 -0.000390012)
(0.678868 3.3303 -0.00334779)
(0.242586 1.05287 -0.00102652)
(0.26041 1.12996 -0.00133533)
(0.662139 3.24775 -0.0039002)
(0.236622 1.02628 -0.00182332)
(0.61771 3.02877 -0.00505665)
(0.261417 1.134 -0.00191129)
(0.627859 3.07846 -0.00542659)
(0.226069 0.980506 -0.00197564)
(0.624774 3.06227 -0.00612412)
(0.204305 0.886171 -0.00180466)
(0.666935 3.2695 -0.0065886)
(-0.0665434 -0.538248 0.000495494)
(-0.0338051 -0.247811 0.000243981)
(-0.0468642 -0.341596 0.000730998)
(-0.0595053 -0.432673 0.000952174)
(-0.0974719 -0.784077 0.00171158)
(-0.0525309 -0.516783 0.000782954)
(-0.00525081 -0.158992 0.000254509)
(-0.00529303 -0.160259 0.000236382)
(0.000117967 -0.0101066 1.70707e-05)
(-5.46003e-05 -0.0228435 3.17404e-05)