/*--------------------------------*- C++ -*----------------------------------*\
| =========                 |                                                 |
| \\      /  F ield         | OpenFOAM: The Open Source CFD Toolbox           |
|  \\    /   O peration     | Version:  2306                                  |
|   \\  /    A nd           | Website:  www.openfoam.com                      |
|    \\/     M anipulation  |                                                 |
\*---------------------------------------------------------------------------*/
FoamFile
{
    version     2.0;
    format      ascii;
    arch        "LSB;label=32;scalar=64";
    class       volScalarField;
    location    "1.45";
    object      p;
}
// * * * * * * * * * * * * * * * * * * * * * * * * * * * * * * * * * * * * * //

dimensions      [0 2 -2 0 0 0 0];

internalField   nonuniform List<scalar> 
111542
(
61.9184
63.2074
66.3034
71.3805
78.5116
87.9004
99.7017
113.948
130.159
146.936
161.755
170.641
169.549
157.224
136.639
113.472
91.7495
73.058
57.594
45.1975
35.4353
27.9381
22.2976
18.0112
14.7569
12.2617
10.2442
8.67025
7.49024
6.57774
5.85075
5.25392
4.80007
4.41889
4.05844
3.67621
3.21798
2.67774
1.95295
0.949231
60.7521
61.9987
65.0607
70.0763
77.1991
86.7373
99.0577
114.413
132.649
152.717
171.969
184.88
183.855
167.528
141.588
114.633
90.898
71.1749
55.2951
42.8612
33.3432
26.1456
20.7396
16.7614
13.7813
11.4672
9.64448
8.22995
7.13742
6.27583
5.58275
5.01935
4.56174
4.17001
3.80409
3.42553
2.98998
2.45138
1.73781
0.790194
58.4454
59.6226
62.5408
67.3743
74.3866
84.0787
97.1578
114.434
136.58
163.456
191.765
212.978
212.893
187.386
151.065
117.638
90.0968
68.3027
51.5884
39.0563
29.8537
23.2722
18.4873
14.9896
12.162
9.86086
8.11192
6.82773
5.87137
5.14271
4.58225
4.14919
3.80899
3.52867
3.27283
3.0045
2.67826
2.2365
1.60228
0.689847
55.0652
56.1147
58.7393
63.1608
69.7552
79.2414
92.7652
112.03
139.454
178.303
213.21
255.722
261.206
220.173
167.771
127.049
93.8087
68.6021
50.2834
37.0996
23.7952
17.642
14.9593
13.39
11.3574
9.28603
7.63003
6.37716
5.39514
4.60886
3.98447
3.49295
3.10497
2.79015
2.51906
2.25917
1.96419
1.5699
0.976854
0.0498815
50.7418
51.584
53.7137
57.3705
62.9857
71.3978
84.0513
103.378
133.427
178.137
255.033
341.16
364.599
256.161
171.271
122.637
83.1454
56.5602
39.2153
28.2413
21.3466
7.02459
6.00458
6.38263
5.64863
4.7629
4.12751
3.65232
3.2512
2.91225
2.63749
2.41848
2.24414
2.10003
1.97379
1.84802
1.69074
1.44537
0.987318
0.00417352
45.6948
46.2428
47.6538
50.1283
54.0376
60.1137
69.691
85.2387
111.556
166.317
260.147
455.186
619.198
244.73
170.992
113.72
66.6738
40.528
25.3223
16.4539
14.3894
11.9148
11.6055
7.55409
4.63303
3.20988
2.43356
1.85897
1.40572
1.07288
0.841301
0.683443
0.578883
0.514116
0.478318
0.460136
0.446293
0.424684
0.405609
0.536566
40.2422
40.4231
40.9298
41.862
43.3993
45.8829
49.9076
56.4803
67.3356
106.932
183.111
414.379
1949.31
-424.911
193.269
78.8609
31.3651
15.9391
7.74537
-1.56007
-4.96643
15.5944
14.8438
9.36176
6.02074
4.63717
3.94181
3.4061
2.96486
2.62553
2.36777
2.16435
2.00008
1.86598
1.75703
1.66866
1.58785
1.5061
1.41593
1.34444
34.7899
34.5718
34.0929
33.3232
32.1953
30.5437
27.9786
23.5725
14.9588
17.4458
0.871439
-160.348
-1004.28
-1048.93
-314.451
-102.404
-47.1328
-26.5562
-17.1607
-10.7584
-4.0391
-8.11269
-6.18353
-4.50183
-3.53465
-2.5763
-1.67719
-0.974968
-0.450189
-0.0395548
0.294178
0.568301
0.795104
0.983281
1.13778
1.25741
1.32598
1.31016
1.13923
0.678155
29.7457
29.1838
27.7774
25.4093
21.8217
16.4674
8.33709
-4.451
-25.517
-48.5822
-122.068
-266.905
-478.097
-507.823
-322
-176.638
-101.612
-61.9729
-39.711
-25.6049
-15.5797
-8.67897
-4.50524
-1.54463
0.2407
1.34447
2.1068
2.62767
2.95828
3.15575
3.26515
3.31407
3.31856
3.2872
3.22099
3.11334
2.93974
2.64934
2.14219
1.21689
25.5772
24.7033
22.5378
18.8913
13.3957
5.33737
-6.47777
-24.0124
-50.5503
-91.7181
-149.519
-222.552
-288.48
-297.181
-239.782
-166.518
-110.892
-75.0624
-51.7938
-35.676
-24.25
-16.6287
-11.5055
-7.87504
-5.31561
-3.50043
-2.15155
-1.12054
-0.332428
0.270752
0.737878
1.10377
1.38937
1.60528
1.75107
1.81949
1.78569
1.6043
1.21104
0.553909
22.592
21.5031
18.8174
14.3123
7.5801
-2.08781
-15.7841
-34.9947
-61.5917
-97.4698
-142.669
-192.076
-231.016
-238.505
-208.255
-159.346
-114.684
-81.9649
-58.9488
-42.1852
-29.7338
-20.6188
-13.9475
-9.06817
-5.51566
-2.94055
-1.06399
0.309809
1.30969
2.02851
2.53803
2.89113
3.12309
3.25361
3.28195
3.21816
3.03731
2.69049
2.10193
1.13687
21.036
19.8511
16.8875
11.9764
4.63397
-5.74918
-20.1805
-39.7993
-65.7731
-98.492
-136.522
-174.531
-202.568
-208.957
-189.396
-153.364
-115.684
-84.9842
-62.1301
-45.0814
-32.2156
-22.6088
-15.5666
-10.454
-6.79249
-4.15739
-2.24683
-0.851669
0.171539
0.922679
1.47403
1.87691
2.16642
2.36655
2.42289
2.40978
2.28376
1.99199
1.48153
0.696949
61.4534
62.6855
65.7101
70.6291
77.5269
86.5952
98.0174
111.779
127.4
143.58
157.879
166.435
165.26
153.25
133.227
110.645
89.4801
71.2436
56.1682
44.0747
34.5926
27.2913
21.7506
17.5721
14.3898
11.9071
9.93727
8.40138
7.22648
6.32099
5.61235
5.05162
4.6082
4.23766
3.89707
3.54579
3.13914
2.62897
1.93574
0.960233
60.2948
61.4966
64.4658
69.3233
76.2146
85.4355
97.3428
112.173
129.78
149.175
167.804
180.402
179.19
163.256
138.014
111.763
88.6161
69.373
53.8991
41.797
32.5314
25.496
20.1962
16.306
13.3888
11.1103
9.31711
7.9253
6.8484
6.00388
5.33248
4.79434
4.35837
3.98906
3.65083
3.30621
2.91278
2.41666
1.74681
0.826892
58.0077
59.1401
61.9616
66.6374
73.4165
82.7809
95.4154
112.109
133.526
159.56
187.014
207.568
207.652
182.806
147.413
114.802
87.8574
66.5415
50.2424
38.0507
29.0742
22.6308
17.9371
14.4838
11.6889
9.42945
7.72788
6.49038
5.57662
4.88576
4.35901
3.95572
3.64181
3.38551
3.15588
2.91865
2.63227
2.23772
1.65122
0.758311
54.6581
55.6631
58.1941
62.463
68.8288
77.9858
91.0485
109.683
136.273
174.068
209.47
251.266
256.685
216.125
164.805
124.81
92.0059
67.1477
49.1422
36.2038
22.658
16.6014
14.2355
12.7734
10.7299
8.66394
7.04845
5.85359
4.93449
4.21066
3.64521
3.20646
2.86523
2.59256
2.36273
2.1476
1.90781
1.58031
1.05921
0.171536
50.3768
51.1772
53.2225
56.7423
62.1501
70.2585
82.4774
101.196
130.42
175.148
251.041
336.312
359.362
251.619
168.658
120.856
81.5231
55.1348
38.0188
27.1255
19.8959
4.93093
4.41395
5.20402
4.70893
3.99521
3.4965
3.12479
2.79683
2.50731
2.26508
2.06704
1.90816
1.77916
1.67232
1.57779
1.47296
1.30606
0.950181
0.0636066
45.3828
45.894
47.2367
49.6026
53.3482
59.1854
68.4231
83.5006
109.198
163.868
257.446
451.587
614.983
239.96
169.416
113.095
65.5074
39.221
24.0524
15.0423
10.6902
12.061
11.1416
6.61575
3.66366
2.36462
1.73374
1.29639
0.961325
0.721578
0.558235
0.447535
0.376234
0.336374
0.324928
0.340056
0.380968
0.448937
0.558182
0.793205
39.9875
40.144
40.6045
41.4664
42.9036
45.2506
49.0993
55.4692
66.1512
105.702
181.947
414.109
1941.18
205.563
75.9276
30.0931
15.2726
7.09871
-2.57168
-9.83985
13.5598
13.6068
8.26649
5.08277
3.86811
3.27287
2.7804
2.3512
2.0054
1.73084
1.50787
1.32838
1.18781
1.08624
1.02437
1.00123
1.01777
1.07587
1.17463
34.5838
34.3654
33.8655
33.0684
31.9125
30.2405
27.6842
23.3708
15.046
17.6816
1.74586
-156.715
-986.153
-1033.46
-310.199
-100.93
-46.2988
-26.2151
-17.1783
-10.9055
-3.4764
-8.03664
-6.27886
-4.79649
-3.86279
-2.87769
-1.96846
-1.26841
-0.745005
-0.333825
0.000659495
0.276081
0.506291
0.701178
0.869531
1.01551
1.13153
1.19069
1.12303
0.759566
29.6126
29.04
27.6343
25.2826
21.7336
16.4598
8.4899
-3.99285
-24.4973
-47.386
-119.31
-261.918
-470.498
-497.789
-316.412
-173.344
-99.6014
-60.8753
-39.2261
-25.458
-15.4178
-8.79854
-4.93566
-2.10521
-0.297025
0.854878
1.64504
2.17698
2.50959
2.70284
2.80399
2.84363
2.84072
2.8068
2.74648
2.65756
2.52072
2.28999
1.87024
1.06851
25.4833
24.611
22.4713
18.8731
13.4645
5.55936
-5.99667
-23.1021
-48.9417
-89.0033
-145.274
-216.539
-281.25
-289.608
-233.487
-162.112
-108.099
-73.4152
-50.9143
-35.3116
-24.2166
-16.783
-11.8016
-8.22249
-5.66893
-3.84943
-2.49537
-1.46021
-0.669972
-0.0668147
0.39911
0.763655
1.04913
1.26753
1.42164
1.50633
1.50037
1.36194
1.0309
0.459856
22.5301
21.455
18.8038
14.3629
7.75405
-1.71884
-15.1068
-33.8445
-59.7384
-94.6362
-138.597
-186.681
-224.678
-232.142
-202.692
-155.198
-111.873
-80.177
-57.8822
-41.6279
-29.534
-20.6589
-14.1374
-9.3561
-5.86305
-3.31985
-1.45769
-0.0895581
0.907525
1.62386
2.13074
2.48119
2.71105
2.84183
2.88096
2.83024
2.67047
2.35936
1.82969
0.97061
20.9925
19.8146
16.9043
12.0456
4.86005
-5.31591
-19.4213
-38.566
-63.8337
-95.6794
-132.679
-169.673
-197.022
-203.411
-184.513
-149.444
-112.842
-83.0903
-60.9389
-44.4039
-31.9036
-22.5535
-15.6847
-10.6998
-7.098
-4.49165
-2.59538
-1.20597
-0.184152
0.567169
1.11885
1.52144
1.80857
1.99814
2.08806
2.0878
1.97597
1.71253
1.25333
0.570256
60.5262
61.6734
64.5139
69.1248
75.5776
84.0442
94.6894
107.479
121.959
136.93
150.112
157.922
156.672
145.268
126.322
104.943
84.8727
67.553
53.2423
41.7752
32.7913
25.8431
20.5329
16.5281
13.4869
11.1167
9.24536
7.78162
6.65089
5.77732
5.09589
4.55869
4.12913
3.77305
3.45527
3.13824
2.78009
2.32911
1.71724
0.856097
59.3874
60.5039
63.2839
67.8314
74.2718
82.8725
93.9581
107.738
124.075
142.058
159.339
170.905
169.738
154.666
130.812
105.981
84.0183
65.7343
51.0586
39.6115
30.8543
24.1309
19.0392
15.3327
12.5755
10.413
8.6931
7.34104
6.2823
5.44684
4.78176
4.24901
3.81751
3.45744
3.13866
2.82774
2.48528
2.05953
1.48487
0.694251
57.14
58.1865
60.8182
65.1842
71.5057
80.224
91.9729
107.488
127.405
151.659
177.302
196.684
196.641
173.153
139.775
108.916
83.2561
62.9493
47.5012
36.035
27.7039
21.5207
16.929
13.6067
10.9709
8.83463
7.19843
5.98553
5.07588
4.38088
3.84834
3.44135
3.12773
2.87988
2.67119
2.47317
2.24885
1.94346
1.47186
0.704964
53.8529
54.7737
57.1222
61.092
67.0078
75.5119
87.6463
104.985
129.805
165.266
200.196
240.222
245.445
206.467
157.613
119.435
87.7647
63.8067
46.5705
34.2785
21.33
15.8506
13.6383
12.1386
10.0082
7.84864
6.1378
4.85399
3.86142
3.08412
2.48461
2.03012
1.69003
1.43659
1.24784
1.10157
0.966733
0.789011
0.46867
-0.161458
49.6572
50.3801
52.2617
55.5128
60.511
68.0127
79.347
96.7883
124.204
167.805
240.865
323.643
346.187
241.305
162.717
116.608
77.9107
52.1076
35.5537
25.0864
18.198
4.2707
4.36129
5.26142
4.55397
3.54546
2.7923
2.22646
1.7579
1.37332
1.07398
0.851335
0.696613
0.597361
0.548226
0.544763
0.57889
0.617219
0.547528
-0.0171933
44.7688
45.2165
46.4275
48.5797
52.0006
57.3571
65.8945
79.9568
104.223
157.65
249.512
440.921
601.673
230.016
168.09
111.411
63.5207
37.0317
21.9841
13.1836
8.59111
9.18892
8.17863
3.55179
0.3823
-1.15728
-1.94385
-2.44646
-2.78519
-2.99007
-3.09306
-3.1276
-3.09973
-3.02031
-2.88825
-2.69416
-2.41552
-2.00992
-1.37979
-0.221869
39.4951
39.6065
39.9802
40.7055
41.9434
44.0118
47.4835
53.3831
63.5732
102.51
178.449
411.678
1929.28
217.272
78.1941
29.8575
14.159
5.80644
-4.25466
-9.28458
12.1566
11.073
5.16355
1.84986
0.627499
0.066624
-0.353103
-0.685187
-0.926116
-1.09537
-1.21309
-1.28772
-1.31346
-1.28396
-1.18451
-0.989725
-0.661028
-0.123933
0.754684
34.2093
33.9734
33.4362
32.5896
31.3776
29.6571
27.1014
22.9377
15.1364
18.1816
4.08198
-147.776
-968.235
-1012.14
-297.625
-95.5959
-44.3681
-25.9916
-17.7917
-11.9022
-4.28475
-8.61492
-7.67186
-6.70047
-5.77614
-4.6678
-3.64584
-2.84783
-2.23807
-1.75567
-1.36227
-1.03444
-0.754824
-0.506958
-0.270473
-0.030762
0.223957
0.487551
0.70942
0.693319
29.3588
28.7817
27.3867
25.0686
21.595
16.4767
8.81697
-3.06431
-22.4334
-44.3548
-112.631
-249.501
-451.766
-478.589
-302.408
-164.987
-94.9871
-58.5379
-38.2532
-25.2778
-15.6335
-9.68953
-6.13304
-3.46566
-1.71042
-0.571412
0.226666
0.7848
1.1563
1.3948
1.54588
1.63949
1.69537
1.72618
1.74392
1.75265
1.74401
1.68409
1.48403
0.93211
25.3246
24.4674
22.376
18.8759
13.6417
6.03729
-5.00831
-21.2597
-45.6901
-83.4561
-136.518
-204.037
-265.865
-274.177
-221.028
-153.565
-102.772
-70.2776
-49.1979
-34.5585
-24.1549
-17.2552
-12.3719
-8.83984
-6.37469
-4.62523
-3.29544
-2.25174
-1.43692
-0.802533
-0.301966
0.0988828
0.42319
0.682146
0.885258
1.03145
1.10628
1.07466
0.876013
0.434789
22.4387
21.3913
18.8149
14.514
8.1424
-0.945886
-13.7233
-31.5198
-56.0122
-88.9338
-130.391
-175.851
-212.014
-219.39
-191.762
-147.038
-106.316
-76.5752
-55.6417
-40.3546
-28.9616
-20.5713
-14.3017
-9.68989
-6.34416
-3.91234
-2.1177
-0.783236
0.201778
0.920098
1.43906
1.80929
2.06595
2.23037
2.31468
2.31936
2.22995
2.011
1.59897
0.877326
20.9332
19.7912
16.9687
12.2685
5.35004
-4.40575
-17.862
-36.0466
-59.9543
-90.0212
-124.93
-159.887
-185.866
-192.167
-174.579
-141.661
-107.265
-79.316
-58.4849
-42.9091
-31.1103
-22.2561
-15.7048
-10.9144
-7.43833
-4.92183
-3.08625
-1.73064
-0.722132
0.0298879
0.591555
1.01086
1.32014
1.53737
1.66987
1.71525
1.65894
1.46958
1.10525
0.526112
59.1834
60.2144
62.7867
66.9609
72.784
80.3924
89.9144
101.295
114.109
127.279
138.77
145.409
144.016
133.498
116.178
96.6299
78.2137
62.2715
49.0939
38.5455
30.2757
23.8249
18.8056
14.9579
12.033
9.77858
8.01843
6.6494
5.59451
4.78337
4.15512
3.66445
3.27689
2.96227
2.69051
2.43
2.1449
1.7903
1.30949
0.636432
58.0733
59.0722
61.5823
65.6886
71.4864
79.1971
89.0909
101.333
115.779
131.612
146.784
156.664
155.479
141.732
120.05
97.427
77.296
60.4819
47.0076
36.5308
28.5121
22.1872
17.2555
13.643
11.0022
8.96758
7.36101
6.10205
5.12205
4.35719
3.7564
3.28188
2.90461
2.59819
2.33752
2.09577
1.84045
1.52769
1.10056
0.502473
55.8844
56.813
59.1759
63.0993
68.7641
76.5471
86.9955
100.747
118.354
139.766
162.393
179.642
179.28
157.997
127.903
99.8816
76.3297
57.6602
43.5473
33.1898
25.8136
19.7349
14.8021
11.4134
9.01578
7.17168
5.7583
4.7012
3.90692
3.30053
2.8373
2.48661
2.22293
2.02328
1.87012
1.74345
1.61713
1.44589
1.14885
0.576979
52.6898
53.4957
55.5859
59.1266
64.3916
71.9384
82.6828
98.0202
119.99
151.478
184.736
221.321
225.977
189.916
145.422
110.433
80.8377
58.5176
42.6228
31.4358
19.3803
13.7862
10.7306
8.95212
7.14267
5.43502
4.08813
3.07337
2.2875
1.67032
1.19197
0.831847
0.566661
0.376041
0.253443
0.190549
0.176072
0.175985
0.102125
-0.268172
48.6206
49.2389
50.8886
53.7521
58.1519
64.751
74.7299
90.1249
114.46
155.376
222.623
299.96
321.272
222.078
151.221
108.583
71.3663
46.9329
31.5687
21.9604
15.3333
-2.35484
-0.988503
1.29207
1.45336
0.962612
0.522213
0.148345
-0.199817
-0.507151
-0.757843
-0.940755
-1.06484
-1.13354
-1.13696
-1.06244
-0.89014
-0.614088
-0.308868
-0.397096
43.8873
44.2518
45.2767
47.1187
50.0594
54.6877
62.115
74.4679
96.0835
146.397
233.922
418.603
573.237
207.972
159.304
106.044
58.0585
32.446
18.3809
10.0608
4.44046
-3.42686
-0.743768
-1.16763
-2.30902
-2.96605
-3.32009
-3.61139
-3.87319
-4.0846
-4.24142
-4.36095
-4.42729
-4.43972
-4.37808
-4.2063
-3.86082
-3.22741
-2.10447
-0.167654
38.7854
38.8474
39.0983
39.6235
40.5621
42.193
45.0331
50.0472
59.0579
96.0518
170.021
403.256
1894.92
188.015
83.7365
27.5369
9.46759
0.812277
-8.53866
-16.2396
12.739
10.5007
3.91362
0.138473
-1.56057
-2.50444
-3.18472
-3.69382
-4.06167
-4.32346
-4.4993
-4.60954
-4.65592
-4.61109
-4.44311
-4.08848
-3.43658
-2.29379
-0.354864
33.6971
33.4296
32.8406
31.921
30.6179
28.7997
26.1861
22.1216
14.876
18.1663
6.579
-132.848
-913.244
-968.861
-272.813
-86.6025
-42.3097
-26.661
-19.5318
-13.9735
-5.5151
-7.35431
-6.81576
-6.33776
-5.73103
-4.91926
-4.13604
-3.50794
-3.02509
-2.64741
-2.34523
-2.0864
-1.87616
-1.6866
-1.48173
-1.23137
-0.896778
-0.438384
0.142597
0.623666
29.0177
28.4388
27.0601
24.788
21.4141
16.5027
9.26068
-1.79086
-19.5367
-39.7671
-102.184
-228.673
-418.129
-443.304
-277.845
-151.642
-88.3047
-55.4823
-37.1925
-25.4237
-16.6374
-11.4841
-7.19638
-4.07775
-2.37815
-1.45819
-0.85326
-0.438014
-0.173422
-0.0141495
0.0818815
0.142786
0.18203
0.216364
0.263406
0.335385
0.438713
0.563955
0.647504
0.50249
25.1251
24.2915
22.2708
18.9109
13.9235
6.74285
-3.58118
-18.6106
-40.9795
-75.2649
-123.323
-184.717
-241.332
-249.399
-201.551
-140.733
-95.0487
-65.7815
-46.7287
-33.4893
-24.1446
-18.0319
-12.824
-9.01491
-6.58417
-4.97006
-3.75469
-2.79443
-2.04381
-1.45947
-0.996861
-0.622732
-0.316741
-0.0644981
0.148373
0.325833
0.462833
0.537583
0.498871
0.268966
22.3375
21.3323
18.8645
14.7648
8.73035
0.188512
-11.7216
-28.1692
-50.6271
-80.626
-118.285
-159.621
-192.734
-199.84
-175.164
-134.924
-98.2419
-71.3729
-52.377
-38.466
-28.0936
-20.4138
-14.426
-9.92228
-6.6872
-4.37646
-2.687
-1.4361
-0.516938
0.150001
0.630441
0.974251
1.2159
1.3778
1.47541
1.51197
1.47815
1.348
1.07137
0.567778
20.8833
19.7916
17.0972
12.6281
6.08919
-3.06805
-15.6071
-32.4236
-54.3804
-81.8448
-113.633
-145.475
-169.272
-175.332
-159.746
-130.231
-99.2162
-73.8956
-54.9386
-40.7156
-29.9146
-21.7687
-15.6445
-11.058
-7.69101
-5.26152
-3.50128
-2.20537
-1.24212
-0.524567
0.0108364
0.411115
0.708361
0.922377
1.0634
1.13133
1.115
0.991338
0.728925
0.312141
57.506
58.398
60.6426
64.2813
69.3316
75.8833
84.0138
93.636
104.345
115.199
124.48
129.541
127.852
118.447
103.271
86.146
69.904
55.746
43.9979
34.5808
27.2014
21.4543
16.9576
13.4485
10.7436
8.65648
7.03319
5.77308
4.8025
4.05776
3.48082
3.03103
2.67822
2.39625
2.15906
1.94138
1.71476
1.44271
1.07749
0.548965
56.4331
57.2912
59.4719
63.0369
68.0437
74.6532
83.0594
93.3554
105.366
118.362
130.67
138.199
136.753
124.753
106.047
86.4355
68.7812
53.9142
41.9742
32.7077
25.6691
20.1504
15.7864
12.4399
9.91653
7.96251
6.42149
5.2152
4.28142
3.56403
3.00443
2.56622
2.22351
1.95129
1.73037
1.53951
1.35409
1.14101
0.853292
0.423011
54.3181
55.1072
57.1422
60.5211
65.3731
71.988
80.7887
92.2567
106.783
124.243
142.453
156.258
155.322
137.164
111.733
87.7447
67.2195
50.8149
38.4346
29.4914
23.5393
18.4959
13.8339
10.4333
8.11074
6.38782
5.06126
4.05269
3.28777
2.70017
2.25277
1.9128
1.65843
1.46948
1.33547
1.24497
1.18516
1.12754
1.00575
0.63702
51.241
51.9121
53.6868
56.697
61.1502
67.486
76.4322
89.0918
107.064
132.613
162.488
193.116
196.548
165.315
127.617
97.3236
71.0429
51.301
37.3631
27.86
19.1605
16.5013
11.3262
7.53544
5.03169
3.21555
1.89486
0.95701
0.28762
-0.196974
-0.551672
-0.809448
-0.988271
-1.10602
-1.15768
-1.1321
-1.01665
-0.806065
-0.532999
-0.390681
47.3324
47.8286
49.195
51.5765
55.223
60.6632
68.842
81.3936
101.158
137.177
193.762
260.225
278.288
190.888
133.437
95.3123
61.2016
39.3995
26.0689
18.301
15.7286
7.90141
5.30692
3.60803
1.95291
0.549733
-0.495405
-1.29422
-1.91987
-2.38943
-2.73959
-2.98432
-3.14267
-3.23177
-3.23543
-3.11427
-2.81981
-2.27327
-1.42355
-0.593227
42.8134
43.0651
43.8616
45.3159
47.6454
51.3181
57.2213
67.0741
84.4232
128.513
206.3
373.904
516.842
173.519
155.584
95.4543
47.9805
24.0381
11.6991
4.66884
-2.43119
-30.6206
-27.902
-26.0464
-25.0376
-23.8558
-22.6747
-21.6643
-20.8202
-20.1038
-19.473
-18.9197
-18.4025
-17.8787
-17.3088
-16.628
-15.71
-14.2964
-11.8111
-6.79433
37.9033
37.9167
38.0181
38.2915
38.8423
39.8802
41.8115
45.4117
52.1931
84.634
151.656
372.084
1829.41
266.687
68.4454
12.9731
-3.25454
-9.75833
-15.0134
-20.6155
-3.92912
-5.83268
-10.0971
-12.2698
-13.0248
-13.3082
-13.4531
-13.5134
-13.5001
-13.4242
-13.3129
-13.1314
-12.8852
-12.551
-12.0644
-11.3068
-10.035
-7.7826
-3.79009
33.0657
32.7704
32.1197
31.1059
29.6747
27.701
24.9366
20.8281
13.9615
16.7539
7.09001
-117.561
-831.39
-857.841
-237.152
-79.6172
-43.9262
-30.8431
-24.305
-18.8141
-13.0257
-22.0454
-17.6899
-13.6405
-11.3709
-9.81142
-8.61372
-7.73193
-7.09859
-6.63723
-6.2906
-6.00979
-5.77811
-5.55851
-5.30724
-4.96929
-4.46752
-3.67898
-2.45379
-0.774738
28.6099
28.0327
26.6769
24.4576
21.1958
16.5188
9.75563
-0.323426
-16.0873
-34.0026
-88.0489
-197.85
-363.61
-384.145
-240.986
-133.93
-80.3961
-52.2294
-36.2986
-26.2433
-20.2119
-18.8549
-12.6027
-7.57376
-5.03932
-3.73128
-2.87456
-2.27762
-1.88083
-1.62216
-1.44743
-1.32256
-1.2264
-1.13032
-1.01256
-0.848338
-0.607993
-0.263042
0.17084
0.483128
24.9005
24.0979
22.1658
18.9751
14.2852
7.61643
-1.82839
-15.3469
-35.1075
-64.8381
-105.995
-158.34
-206.598
-214.204
-174.769
-123.973
-85.3529
-60.1934
-43.5934
-32.082
-24.2501
-19.6558
-14.5346
-10.4022
-7.72238
-5.93265
-4.5805
-3.51609
-2.69058
-2.05481
-1.55918
-1.16444
-0.847648
-0.582769
-0.35229
-0.142575
0.0541327
0.232899
0.354311
0.301193
22.2417
21.2883
18.9548
15.1013
9.47884
1.60537
-9.2384
-24.015
-43.9147
-70.1495
-102.745
-138.306
-166.924
-173.488
-153.11
-119.266
-88.0409
-64.809
-48.1626
-35.9064
-26.8131
-20.1654
-14.8385
-10.591
-7.41745
-5.10768
-3.39955
-2.12026
-1.16738
-0.464738
0.0515156
0.430504
0.706943
0.906553
1.04645
1.13479
1.16927
1.13172
0.976117
0.59538
20.8537
19.8237
17.2857
13.0992
7.02351
-1.40056
-12.8083
-27.9316
-47.451
-71.61
-99.3422
-127.002
-147.741
-153.331
-140.378
-115.552
-89.0362
-67.0599
-50.3985
-37.8035
-28.2151
-20.9849
-15.5039
-11.2712
-8.06184
-5.69238
-3.94513
-2.63727
-1.64873
-0.900293
-0.333302
0.0970358
0.422763
0.665551
0.837795
0.943487
0.976005
0.916726
0.733978
0.382045
55.6012
56.3453
58.2292
61.2754
65.471
70.8538
77.4417
85.1062
93.4542
101.674
108.384
111.626
109.485
101.292
88.6041
74.3293
60.6739
48.6261
38.5169
30.3157
23.795
18.6638
14.6655
11.5721
9.18148
7.31794
5.85451
4.71082
3.82489
3.14644
2.61746
2.20326
1.87767
1.62115
1.40989
1.22152
1.03604
0.826722
0.568342
0.247542
54.5704
55.2803
57.099
60.0648
64.1958
69.5832
76.3311
84.4403
93.6724
103.335
111.974
116.959
114.961
104.929
89.7948
73.8508
59.2505
46.7402
36.5303
28.443
22.0886
17.1425
13.3047
10.3782
8.1409
6.38559
4.98782
3.8807
3.01123
2.37316
1.86635
1.46634
1.15654
0.908801
0.71643
0.56431
0.428715
0.292132
0.136369
-0.0280183
52.543
53.1846
54.8596
57.6351
61.5842
66.8951
73.8394
82.6956
93.6146
106.305
119.087
127.934
126.05
111.568
91.8031
73.0228
56.611
43.1123
32.6808
24.7981
18.6548
14.2518
10.6431
7.8959
5.8716
4.31385
3.11295
2.20406
1.51486
0.962412
0.560895
0.270464
0.0649623
-0.0688459
-0.149594
-0.178205
-0.160779
-0.101634
-0.0220302
0.0296822
49.5981
50.1312
51.56
53.9816
57.5285
62.5008
69.3895
78.9052
91.9924
109.766
134.109
155.562
156.787
132.528
103.555
79.6744
58.4755
42.2858
30.6686
22.4843
11.6747
8.90383
5.92369
3.3113
1.32528
-0.259803
-1.50498
-2.42938
-3.08766
-3.54428
-3.84856
-4.04196
-4.14772
-4.18568
-4.15138
-4.02248
-3.77868
-3.37293
-2.73185
-1.69231
45.874
46.2467
47.3032
49.1485
51.9487
56.0695
62.1493
71.265
85.2076
113.675
153.331
199.645
209.234
142.015
101.84
72.6955
45.6298
28.2229
17.5058
11.3158
9.76924
-2.35911
-3.95259
-4.97283
-6.28508
-7.36511
-8.13263
-8.7531
-9.22996
-9.47272
-9.56814
-9.58445
-9.50527
-9.34112
-9.12773
-8.78768
-8.25077
-7.37751
-5.94124
-3.62943
41.5729
41.7362
42.2852
43.3069
44.9456
47.5134
51.6
58.3177
69.889
103.549
162.214
288.457
395.431
105.708
117.167
58.6477
20.1553
1.51014
-7.73212
-12.1308
-9.27924
-22.7652
-25.4444
-30.2789
-32.0008
-32.0408
-31.5434
-30.8053
-29.9505
-29.1336
-28.3333
-27.5107
-26.7108
-25.9167
-25.0385
-24.0178
-22.7102
-20.77
-17.3901
-10.5705
36.9584
36.8831
36.8196
36.8131
36.9194
37.2599
38.0718
39.8004
43.2898
67.4691
118.214
299.752
1651.39
257.679
-18.632
-61.5508
-69.4312
-70.1259
-68.4349
-63.8149
-36.7862
-35.6476
-37.6414
-37.7534
-36.7196
-35.4776
-34.2792
-33.1471
-32.0897
-31.082
-30.1266
-29.1876
-28.2184
-27.2224
-26.1009
-24.6927
-22.6188
-19
-11.5471
32.3774
32.0446
31.3255
30.2049
28.6221
26.4509
23.4543
19.1506
12.4264
13.6242
5.03731
-91.4863
-657.616
-651.274
-193.589
-83.0127
-55.8738
-43.9448
-37.1369
-31.3784
-28.3115
-30.9524
-26.614
-22.52
-20.0919
-18.3328
-16.9605
-15.9069
-15.0863
-14.4293
-13.8832
-13.4117
-12.9997
-12.5669
-12.0975
-11.5338
-10.7696
-9.61069
-7.69176
-4.25852
28.1703
27.6013
26.2675
24.1038
20.9616
16.5317
10.274
1.25012
-12.1954
-27.3936
-70.3542
-153.833
-278.19
-295.318
-191.619
-112.506
-71.1362
-48.1663
-34.6159
-26.0968
-23.3545
-18.3777
-14.7377
-11.692
-9.81232
-8.56049
-7.59859
-6.83396
-6.2273
-5.74288
-5.34859
-5.01783
-4.73569
-4.46897
-4.19312
-3.87748
-3.47535
-2.91987
-2.11959
-0.96144
24.673
23.9084
22.0728
19.0675
14.7045
8.59836
0.124462
-11.7018
-28.4682
-52.8448
-85.5953
-125.968
-162.388
-169.484
-141.316
-103.378
-73.2263
-52.6561
-38.5659
-28.5591
-21.5858
-17.7251
-14.2285
-11.2474
-9.00125
-7.32377
-6.01461
-4.97321
-4.14745
-3.49241
-2.96787
-2.53999
-2.187
-1.88202
-1.60618
-1.34275
-1.07841
-0.802138
-0.512491
-0.212799
22.1649
21.27
19.0862
15.506
10.3398
3.20678
-6.4529
-19.363
-36.3695
-58.2591
-84.849
-113.307
-136.149
-141.752
-126.681
-100.857
-76.0822
-56.9643
-42.8499
-32.2558
-24.2857
-18.4811
-14.0297
-10.52
-7.83755
-5.82957
-4.3161
-3.1627
-2.28045
-1.60548
-1.08725
-0.68742
-0.377707
-0.136355
0.0515807
0.194246
0.291271
0.332532
0.296577
0.161585
20.8541
19.8938
17.5308
13.6584
8.0968
0.486393
-9.66465
-22.9009
-39.6843
-60.0865
-83.127
-105.827
-122.796
-127.663
-117.926
-98.3885
-77.1176
-58.9534
-44.8066
-33.9153
-25.5232
-19.1607
-14.3803
-10.739
-7.96798
-5.87875
-4.30355
-3.10547
-2.18753
-1.4821
-0.939079
-0.519542
-0.195134
0.0533578
0.237734
0.362848
0.423321
0.404785
0.290989
0.0933873
53.6021
54.197
55.7171
58.1635
61.4957
65.7031
70.7479
76.4654
82.4808
88.1153
92.3215
93.7438
91.1288
84.1336
73.9211
62.5202
51.5134
41.6605
33.247
26.3018
20.6916
16.2325
12.7626
10.1316
8.11816
6.53449
5.27862
4.29423
3.53264
2.94745
2.49448
2.14272
1.86819
1.64946
1.46699
1.30165
1.13147
0.930674
0.668225
0.308991
52.6171
53.178
54.6328
56.993
60.2405
64.4004
69.4906
75.426
81.9166
88.3321
93.5322
95.7259
92.974
84.8022
73.2614
61.099
49.7547
39.7744
31.409
24.6176
19.162
14.8188
11.4828
9.06087
7.24744
5.8209
4.68712
3.79352
3.0933
2.54935
2.11944
1.77896
1.50997
1.29426
1.11893
0.971066
0.832551
0.681464
0.487877
0.215196
50.6839
51.1776
52.4934
54.6603
57.7006
61.7036
66.7927
73.0488
80.3926
88.385
95.8091
99.9042
96.5223
85.0739
70.729
57.3232
45.3577
35.0499
26.6819
20.0558
14.737
10.6057
8.06333
6.28531
4.7839
3.5543
2.62887
1.95773
1.4712
1.11526
0.861994
0.684338
0.564218
0.488063
0.446624
0.437484
0.455563
0.48653
0.490961
0.352341
47.8849
48.2757
49.3608
51.192
53.8287
57.4348
62.266
68.6448
76.8945
87.1807
97.9921
106.203
101.244
82.8335
65.1748
51.1544
38.7147
28.5774
20.8329
14.6251
8.38589
2.1961
2.3104
2.71054
2.09781
1.18926
0.397503
-0.227569
-0.712494
-1.07834
-1.34623
-1.53584
-1.65719
-1.7192
-1.71893
-1.6418
-1.47277
-1.19044
-0.791404
-0.348869
44.3579
44.6057
45.3529
46.6654
48.6152
51.4128
55.3869
61.0342
68.9962
88.3302
108.187
128.419
123.939
84.6919
61.7616
47.0199
30.4136
18.5555
10.9599
5.83035
0.682246
-13.2776
-10.8606
-8.01622
-6.77183
-6.16096
-5.74721
-5.4628
-5.26786
-5.11216
-4.98277
-4.8698
-4.75822
-4.63612
-4.47203
-4.22049
-3.82287
-3.18715
-2.23072
-1.06517
40.3
40.3661
40.6672
41.2577
42.2037
43.6637
45.9224
49.4528
55.0203
75.7547
101.51
145.634
167.136
28.6692
24.6503
6.13976
-4.44851
-8.95252
-11.905
-14.0485
-20.0044
-12.1895
-14.228
-16.6562
-17.4919
-17.5868
-17.4378
-17.1689
-16.8222
-16.4359
-16.0153
-15.5474
-15.0657
-14.5728
-14.0123
-13.3303
-12.4231
-11.0677
-8.8472
-5.09319
35.9694
35.8247
35.5983
35.3119
34.9734
34.6134
34.2871
34.0678
33.9981
47.4692
58.617
128.288
167.191
-716.014
-136.587
-93.2987
-65.8839
-58.6607
-54.0014
-51.1546
-68.7101
-39.9328
-37.9546
-36.043
-34.1567
-32.2537
-30.5423
-29.0559
-27.75
-26.5886
-25.5357
-24.5671
-23.6628
-22.7671
-21.8458
-20.8334
-19.6123
-17.8993
-15.0756
-9.56372
31.6775
31.3113
30.5267
29.3005
27.5687
25.1986
21.948
17.3624
10.524
9.2086
-11.7727
-79.3078
-302.984
-258.297
-111.4
-62.5153
-39.4702
-28.3463
-22.2565
-17.6071
-9.52798
5.50771
2.2898
-1.54081
-3.22466
-4.03957
-4.57705
-4.95349
-5.20109
-5.35373
-5.43767
-5.47488
-5.46121
-5.37434
-5.20006
-4.91566
-4.45456
-3.69133
-2.46238
-0.802091
27.7326
27.1737
25.8674
23.7648
20.7485
16.5682
10.7955
2.68969
-9.12505
-27.438
-50.4993
-103.963
-174.901
-188.984
-132.944
-85.1928
-56.7406
-39.0818
-27.9686
-20.0978
-10.0229
-1.15872
-2.34302
-3.92209
-4.02787
-3.62795
-3.21565
-2.85133
-2.52649
-2.24419
-2.00479
-1.79968
-1.62232
-1.46065
-1.2849
-1.07404
-0.80291
-0.436948
0.018885
0.393289
24.4641
23.74
22.0065
19.1947
15.1671
9.63364
2.13958
-7.99697
-21.7601
-40.4096
-64.6342
-92.5681
-116.828
-122.777
-106.25
-81.313
-59.6894
-43.832
-32.3436
-23.5561
-16.1955
-11.2963
-8.61887
-6.68626
-4.94175
-3.5064
-2.43028
-1.63512
-1.03914
-0.589835
-0.250278
0.00943892
0.209198
0.369179
0.510054
0.641705
0.767321
0.876717
0.917438
0.721389
22.1195
21.2867
19.2577
15.9602
11.2626
4.88447
-3.57528
-14.6029
-28.6939
-46.1454
-66.5064
-87.6923
-104.268
-109.007
-99.4528
-81.6307
-63.4452
-48.5256
-36.9814
-27.9611
-20.7969
-15.2849
-11.0963
-8.02712
-5.73134
-3.98652
-2.66437
-1.66098
-0.894022
-0.304965
0.147324
0.493806
0.757449
0.955784
1.10083
1.19778
1.24099
1.20858
1.04937
0.654283
20.8931
20.0041
17.8238
14.2775
9.24537
2.46509
-6.41279
-17.7438
-31.7692
-48.3713
-66.6328
-84.2631
-97.3062
-101.382
-94.8061
-80.71
-64.6362
-50.2918
-38.6881
-29.4838
-22.1866
-16.4836
-12.1322
-8.8718
-6.39899
-4.48852
-3.01001
-1.8719
-0.998071
-0.32766
0.185258
0.575285
0.868557
1.08318
1.22978
1.31191
1.32094
1.23447
1.00921
0.571159
51.6457
52.1021
53.2818
55.1707
57.7037
60.8337
64.4816
68.4665
72.4502
75.8946
78.0531
78.0545
75.18
69.3371
61.3357
52.4874
43.8466
35.9773
29.1327
23.3923
18.7097
14.9788
12.079
9.86049
8.1291
6.73801
5.61538
4.7198
4.01248
3.45506
3.01347
2.66042
2.3736
2.13303
1.92012
1.71571
1.49579
1.23116
0.885586
0.415229
50.7072
51.1309
52.2457
54.0468
56.4801
59.5221
63.1255
67.1521
71.3033
75.0508
77.5782
77.804
74.7296
68.2779
59.7134
50.6494
42.014
34.2172
27.5097
21.9651
17.4935
13.9729
11.3092
9.30985
7.73764
6.45928
5.42205
4.58681
3.91351
3.36927
2.92716
2.56526
2.2661
2.01348
1.79216
1.58724
1.37758
1.13427
0.816934
0.375377
48.869
49.2288
50.2083
51.8182
54.0285
56.8534
60.3048
64.3288
68.7176
72.9893
76.2109
76.829
73.039
64.95
55.2884
46.1315
37.7375
30.1501
23.7013
18.4787
14.3436
11.2487
9.22244
7.65181
6.23438
5.0248
4.07722
3.35788
2.80957
2.38785
2.06388
1.81587
1.62664
1.48203
1.37012
1.28075
1.19836
1.09422
0.910675
0.525402
46.2164
46.4816
47.248
48.5376
50.354
52.7474
55.7991
59.5654
63.9946
68.7512
72.8751
74.0901
68.8142
57.6771
46.9459