/*--------------------------------*- C++ -*----------------------------------*\
| =========                 |                                                 |
| \\      /  F ield         | OpenFOAM: The Open Source CFD Toolbox           |
|  \\    /   O peration     | Version:  2306                                  |
|   \\  /    A nd           | Website:  www.openfoam.com                      |
|    \\/     M anipulation  |                                                 |
\*---------------------------------------------------------------------------*/
FoamFile
{
    version     2.0;
    format      ascii;
    arch        "LSB;label=32;scalar=64";
    class       surfaceScalarField;
    location    "1.45";
    object      phi;
}
// * * * * * * * * * * * * * * * * * * * * * * * * * * * * * * * * * * * * * //

dimensions      [0 3 -1 0 0 0 0];

oriented        oriented;

internalField   nonuniform List<scalar> 
338621
(
24.995
0.00247638
0.00115702
24.9873
0.00518913
0.0024589
24.975
0.00818599
0.00398028
24.9577
0.0113273
0.0058555
24.9344
0.0147242
0.00839003
24.9016
0.0207903
0.0117447
24.8549
0.0303117
0.0160359
24.7921
0.0409104
0.021574
24.7304
0.032682
0.028594
24.6875
0.00542234
0.0370021
24.6595
-0.0190432
0.046639
24.5857
0.0163264
0.0569765
24.6144
-0.0966696
0.0676531
24.7447
-0.208427
0.0777147
24.7862
-0.128514
0.0866004
24.8181
-0.126263
0.0940073
24.8463
-0.128476
0.0999607
24.8689
-0.127693
0.104841
24.8878
-0.127732
0.108635
24.914
-0.137881
0.111576
24.9436
-0.14329
0.113598
24.9664
-0.13791
0.115088
24.9841
-0.133914
0.116178
24.9989
-0.131595
0.116817
25.0116
-0.129972
0.117237
25.0225
-0.128423
0.117519
25.0321
-0.127283
0.11765
25.0404
-0.126016
0.117668
25.0476
-0.124808
0.117703
25.0537
-0.12395
0.117755
25.0591
-0.12322
0.117818
25.0639
-0.122659
0.117872
25.0681
-0.122211
0.118021
25.0718
-0.121889
0.118231
25.0751
-0.12171
0.118439
25.0784
-0.121973
0.118651
25.0817
-0.122166
0.118797
25.0853
-0.122463
0.118923
25.0892
-0.122892
0.118959
-0.123701
0.118616
24.995
0.00493395
0.00113485
24.9872
0.010505
0.00238366
24.9745
0.0168779
0.00389242
24.9571
0.0228781
0.0057539
24.9337
0.0296322
0.00826858
24.9041
0.0386166
0.01152
24.8684
0.049835
0.0158645
24.8228
0.0647437
0.0214982
24.7584
0.0680294
0.0287118
24.6839
0.0419949
0.0375667
24.6412
-0.0247808
0.0480426
24.6281
-0.0301239
0.05924
24.6668
-0.207015
0.071461
24.7507
-0.375336
0.0827061
24.8308
-0.301115
0.0922482
24.8987
-0.294411
0.0999907
24.9503
-0.286447
0.106142
24.9917
-0.280338
0.111054
25.036
-0.287016
0.114861
25.0695
-0.28907
0.117641
25.0896
-0.283082
0.119659
25.104
-0.273434
0.121052
25.1141
-0.266102
0.122117
25.1223
-0.262554
0.122795
25.1287
-0.259655
0.123249
25.134
-0.257252
0.123523
25.1378
-0.254815
0.123726
25.1411
-0.253143
0.12385
25.144
-0.251682
0.123967
25.1461
-0.250153
0.124092
25.1477
-0.249077
0.124234
25.1486
-0.247988
0.124397
25.1495
-0.24766
0.124603
25.1501
-0.247331
0.124833
25.1506
-0.247276
0.125059
25.1511
-0.247761
0.125305
25.1517
-0.24828
0.125451
25.1528
-0.249056
0.125582
25.1546
-0.250281
0.125568
-0.251029
0.125218
24.9953
0.00704333
0.00108401
24.9876
0.0158782
0.0022811
24.9756
0.0251068
0.0036959
24.9575
0.0352564
0.00555406
24.9331
0.0459093
0.00799047
24.9018
0.0584636
0.0112053
24.8619
0.0739467
0.0155999
24.8127
0.092279
0.0213721
24.7438
0.107698
0.0290146
24.6457
0.100985
0.0388451
24.569
0.00593671
0.0509314
-0.00547869
0.00544099
-0.00524902
24.6659
-0.0382231
0.0650724
-0.0579526
-0.0380841
-0.0578983
24.5583
-0.0106647
0.0784199
-0.0949351
0.0214083
-0.0937148
24.731
-0.181817
0.0911572
-0.123582
-0.211954
-0.121823
24.8241
-0.128723
0.101002
-0.121424
-0.126478
-0.118752
24.8843
-0.118136
0.108759
-0.116369
-0.115262
-0.113821
24.9375
-0.114747
0.114961
-0.115213
-0.112413
-0.112337
25.0024
-0.117869
0.119919
-0.117081
-0.115482
-0.114827
25.0447
-0.114909
0.123699
-0.11373
-0.112661
-0.111644
25.0698
-0.11165
0.126297
-0.110777
-0.109449
-0.108598
25.088
-0.429395
0.128154
25.1022
-0.41696
0.129329
25.1112
-0.405335
0.130218
25.1184
-0.400609
0.130931
25.1243
-0.397138
0.131517
25.129
-0.39382
0.13194
25.1323
-0.390405
0.132244
25.1351
-0.388406
0.132485
25.1367
-0.385949
0.132701
25.1381
-0.384512
0.13292
25.1387
-0.382851
0.133151
25.1391
-0.381752
0.1334
25.1388
-0.381005
0.133613
25.1384
-0.380851
0.133922
25.1376
-0.380564
0.134137
25.1366
-0.381159
0.13436
25.136
-0.382139
0.134454
25.1357
-0.383276
0.13449
25.1357
-0.384632
0.134356
-0.385992
0.1339
24.9956
0.00940625
0.00100692
24.9888
0.0204735
0.00212398
24.977
0.0334079
0.00342223
24.9601
0.04685
0.00519648
24.9355
0.0628877
0.00748341
24.9011
0.0821464
0.0105881
24.8556
0.10444
0.0148718
24.7974
0.129598
0.0206711
24.7305
0.145742
0.0286306
6.14146
0.0376413
0.0394386
0.0548142
0.0383046
0.054196
6.16347
6.14063
6.16136
6.12383
0.0177855
0.00578199
-6.1107
6.09851
-0.0336882
0.00765789
-6.10242
6.12385
-0.0416713
0.00959194
-6.11611
6.143
-0.220239
0.0115497
-6.16179
6.17608
-0.156017
0.0130021
-6.18944
6.20017
-0.142894
0.014032
-6.21151
6.22578
-0.143971
0.0149545
-6.23769
6.2448
-0.140718
0.0157418
-6.25052
6.2556
-0.136309
0.016329
-6.25991
6.26378
-0.132267
0.016754
25.0969
-0.146828
0.139286
-0.147876
-0.145087
-0.147019
-6.26726
-6.27174
-6.2677
-6.272
25.1036
-0.564038
0.140375
25.1069
-0.549163
0.140549
25.1103
-0.544692
0.140685
25.1119
-0.539728
0.141048
25.1119
-0.535344
0.141502
25.1117
-0.532147
0.141996
25.1102
-0.529429
0.14252
25.1077
-0.526511
0.143056
25.1042
-0.524638
0.143589
25.1001
-0.522817
0.144093
25.0951
-0.521283
0.14455
25.0892
-0.519991
0.144894
25.0828
-0.519727
0.145262
25.076
-0.519252
0.145427
25.0688
-0.519394
0.145506
25.0614
-0.520112
0.145352
25.0541
-0.520935
0.14498
25.048
-0.522899
0.144369
-0.523917
0.14334
24.9973
0.0100586
0.00090254
24.9913
0.0244772
0.00190531
24.9815
0.0400704
0.00306255
24.9661
0.0575811
0.00465367
24.9432
0.0789605
0.00670097
24.9098
0.105938
0.00949173
24.8599
0.140881
0.013342
24.7857
0.184974
0.0187449
6.17127
0.235007
0.0262187
6.16397
6.17092
6.16393
6.15513
0.0498225
0.00394589
6.12953
0.00560713
-6.15755
0.020224
0.0120526
0.0117977
0.0204686
-0.0421378
-6.07669
6.04238
0.0076854
-0.00206343
0.00428595
0.00382315
-0.00181616
0.0224213
-6.04182
6.06008
0.00999704
0.0292166
-0.0400678
-0.0402877
-0.0190214
0.0419632
-6.11248
6.1378
0.0125373
-0.0518887
-0.0666106
-0.104515
-0.0523327
0.237536
-6.17033
6.18239
0.0138598
-0.0504943
-0.0544278
-0.0537053
-0.0509283
0.183661
-6.19411
6.20751
0.0148434
-0.0509677
-0.0501659
-0.0500613
-0.0510086
0.173951
-6.221
6.2327
0.0158806
-0.0494835
-0.0491885
-0.0492423
-0.0493963
0.169728
-6.24221
6.24933
0.0167849
-0.0471945
-0.0467542
-0.0469024
-0.0470222
0.163979
-6.25559
6.26005
0.0174592
-0.0449993
-0.0448057
-0.0450182
-0.044785
0.157701
-6.26403
6.26607
0.0179331
-0.0430664
-0.0431018
-0.043329
-0.0428501
0.152385
-6.2691
6.27085
-0.167065
0.0184928
25.0378
-0.675384
0.144604
-6.27073
-6.26386
-6.27156
-6.26483
25.0119
-0.665768
0.142481
24.9848
-0.657332
0.139779
24.9579
-0.650144
0.137331
24.9325
-0.645316
0.135324
24.9083
-0.641719
0.133781
24.8849
-0.638685
0.132641
24.8628
-0.636204
0.131826
24.8409
-0.633997
0.131233
24.8196
-0.632263
0.130773
24.7988
-0.630893
0.130356
24.7787
-0.629686
0.129871
24.7585
-0.628883
0.129358
24.739
-0.628457
0.128643
24.7201
-0.628207
0.127716
24.7019
-0.628429
0.126485
24.6852
-0.629094
0.124882
24.6702
-0.630727
0.122884
-0.634115
0.120347
24.9999
0.00869496
0.000771807
24.9965
0.0261622
0.0016259
24.989
0.044967
0.00261613
24.9772
0.0654027
0.00389318
24.9596
0.0909215
0.00559135
24.9326
0.125098
0.0078441
24.8894
0.173046
0.0108879
24.817
0.242163
0.0151846
6.17077
0.349033
0.021029
6.1703
6.17077
6.17012
-0.0658393
6.14509
0.088345
0.00317303
-0.0198229
-1.52758
1.52241
0.0243831
0.000602052
-0.0195517
-1.50415
1.49201
0.0309383
0.00075909
-1.46849
0.0521174
1.47841
-0.0631621
0.00113188
-1.52997
0.0844145
1.53866
-0.0944139
0.00131971
-1.53681
0.0610575
-0.0648427
0.0017898
1.53881
-1.54797
0.059055
-0.0632437
0.00166791
1.55049
0.0566364
-1.55615
1.55758
-0.0596858
0.00161596
0.0527598
-1.56046
1.561
-0.0548954
0.00160189
0.0500797
-1.5616
1.56167
-0.0517534
0.00160793
0.0477021
-1.56095
1.56052
-0.0489255
0.00165959
-1.55365
0.183157
6.15269
-0.176305
0.0183828
-1.53826
-1.55243
-1.53358
23.8018
-0.774411
0.0752208
-6.09346
-5.79699
-6.09654
-5.79097
23.8184
-0.752081
0.0696752
23.8333
-0.737866
0.0656645
23.8483
-0.727279
0.0621536
23.863
-0.719293
0.0592504
23.8773
-0.712914
0.0569192
23.8912
-0.707645
0.0550259
23.9047
-0.703168
0.0534497
23.918
-0.699343
0.0521014
23.9308
-0.696029
0.0509102
23.9432
-0.693106
0.0498084
23.9555
-0.690626
0.0487053
23.9674
-0.688395
0.0475985
23.9789
-0.686346
0.0463629
23.9904
-0.684648
0.0449355
24.0018
-0.683053
0.0432339
24.0132
-0.681605
0.0411498
24.0241
-0.68025
0.0385642
-0.678414
0.0354474
25.003
0.00479265
0.000631306
25.0036
0.0242622
0.00130771
25.0008
0.0457046
0.00209012
24.9951
0.0680381
0.00301252
24.9863
0.0954714
0.004198
24.9728
0.132895
0.00574132
24.9531
0.185109
0.00766553
24.9218
0.2633
0.0101447
6.21316
0.389705
0.0131115
6.22118
6.21284
6.2208
-0.106726
6.19765
0.120341
0.00189802
-0.0395269
-1.54197
1.53579
0.0453792
0.000327845
-0.0823397
-1.50621
1.48765
0.100632
0.000265816
0.00437893
-0.0746751
0.0748582
-0.00457899
1.69644e-05
-0.0214042
0.000450237
0.0209159
2.65745e-06
3.54183e-05
-0.211019
0.0110237
-0.0225016
0.00103914
0.221458
-1.18128
0.0578255
-0.0776562
0.00219002
1.19892
0.0502035
-1.23632
1.24451
-0.0595358
0.00114126
0.0476891
-1.27132
1.28062
-0.0575257
0.000540957
0.0447537
-1.30585
1.31408
-0.0528811
-9.49575e-05
0.043579
-1.33652
1.34484
-0.0510878
-0.000808752
-1.39196
0.203773
5.8414
-0.220419
-0.0144923
-1.49544
-1.42108
-1.50178
24.1432
-0.689926
-0.110859
-5.8894
-6.17475
-5.87897
-6.17371
24.1655
-0.663724
-0.110638
24.1879
-0.650434
-0.109821
24.2104
-0.640505
-0.109269
24.2321
-0.63204
-0.108944
24.2529
-0.625141
-0.108574
24.2729
-0.61962
-0.108108
24.2923
-0.615099
-0.107427
24.311
-0.611469
-0.106556
24.329
-0.608566
-0.105495
24.3465
-0.606259
-0.104295
24.3633
-0.604533
-0.102935
24.3797
-0.603198
-0.101557
24.3956
-0.602128
-0.100136
24.4109
-0.601149
-0.0988159
24.4259
-0.600362
-0.0977131
24.4406
-0.599352
-0.0969294
24.4548
-0.597789
-0.0966432
-0.594798
-0.0969823
25.0048
-0.000221494
0.000483371
25.0101
0.0179852
0.000985157
25.0151
0.0392214
0.00151669
25.0191
0.0619493
0.00210578
25.021
0.0908497
0.00273135
25.026
0.124436
0.00345428
25.038
0.169013
0.00412717
25.0638
0.233009
0.00455718
6.27429
0.334163
0.00439707
6.28206
6.27444
6.2842
-0.112431
6.28195
0.104293
0.000472403
-0.0448406
-1.57789
1.57957
0.0431326
2.7678e-05
-0.0845295
-1.59808
1.61309
-0.000191455
0.069708
-0.0259887
-1.71348
1.75267
-0.00171065
0.0569657
-0.021135
-0.0261066
-0.0212255
0.100469
-1.71387
1.68408
-0.00127363
-0.0694138
0.102789
-1.61002
-0.00168649
1.5994
-0.090494
0.0785466
-1.58483
-0.00174173
1.58192
-0.073894
0.0574108
-1.5773
1.57636
-0.0547003
-0.001777
0.0582355
-1.57457
1.57275
-0.0546047
-0.00180644
0.0526657
-1.57225
1.57156
-0.0501479
-0.00183073
0.049048
-1.57051
1.56998
-0.0466655
-0.00185437
-1.56758
0.183972
6.26447
-0.163438
-0.0159517
-1.56708
-1.56725
-1.56714
25.0681
-0.556486
-0.127817
-6.26779
-6.26755
-6.27017
-6.26826
25.0689
-0.536348
-0.128192
25.0666
-0.520161
-0.127909
25.0637
-0.510055
-0.127556
25.0613
-0.502318
-0.127327
25.0594
-0.496207
-0.127109
25.058
-0.491259
-0.126939
25.0567
-0.487006
-0.126724
25.0557
-0.484056
-0.126493
25.0549
-0.481489
-0.126242
25.054
-0.479302
-0.126032
25.0532
-0.478053
-0.125727
25.0525
-0.476941
-0.125527
25.0515
-0.475785
-0.125327
25.0509
-0.475295
-0.125276
25.0505
-0.474574
-0.125419
25.0506
-0.473596
-0.125808
25.0513
-0.471978
-0.126542
-0.469823
-0.127582
25.0057
-0.00526846
0.00029199
25.0142
0.00887124
0.000651904
25.0272
0.0252498
0.00096142
25.0386
0.0494168
0.00121517
25.054
0.0741801
0.00136501
25.0774
0.0997465
0.00130909
25.1153
0.130389
0.000878848
25.1785
0.170326
-0.000387967
6.32059
0.232477
-0.00299464
6.31875
6.32482
6.31913
-0.0895036
6.33667
0.0741143
-0.000682389
-0.0334786
6.41333
0.0885999
-0.00162082
-0.0346626
-0.0335752
-0.0341879
-6.3644
-0.033691
6.51749
0.0766874
-0.00346312
-0.0264492
-0.0335311
-0.0263619
-6.47069
-0.00755056
-6.54849
6.51517
-0.00509857
-0.00626834
0.0148832
-0.0078495
0.0451592
0.0455138
-6.53695
6.51497
-0.123446
-0.00932681
0.0392657
0.0362807
0.0336564
0.0552868
-6.45024
6.41249
-0.177902
-0.0116676
0.0557447
0.0576775
0.0585956
0.0566634
-6.3725
6.34043
-0.176282
-0.0132213
0.0554026
0.0555497
0.053966
0.0469985
-6.32238
6.31122
-0.158599
-0.0143606
0.0460972
0.0458005
0.0452307
0.0451266
-6.30251
6.29654
-0.158196
-0.0151307
0.0449204
0.0447052
0.0445397
0.0422345
-6.29196
6.28641
-0.145821
-0.0155568
0.0417471
0.0417742
0.0411622
0.0393674
-6.28196
6.27634
-0.134029
-0.0157628
0.0388996
0.038877
0.038262
0.146037
-6.27462
6.27253
-0.128008
-0.0159423
25.0681
-0.415553
-0.130358
-6.26982
-6.26984
-6.26998
-6.26906
25.06
-0.398281
-0.13001
25.0561
-0.38676
-0.129498
25.0536
-0.378451
-0.129065
25.0521
-0.372219
-0.128648
25.0512
-0.367136
-0.128182
25.0508
-0.363203
-0.127662
25.051
-0.360043
-0.1271
25.051
-0.357577
-0.12651
25.0511
-0.355687
-0.125909
25.0512
-0.354054
-0.125351
25.0513
-0.353318
-0.124799
25.051
-0.352359
-0.124273
25.0512
-0.352176
-0.123875
25.0513
-0.351756
-0.123618
25.0514
-0.351129
-0.123517
25.0523
-0.350838
-0.123637
25.0545
-0.350138
-0.124043
-0.349419
-0.124764
25.0063
-0.0103899
0.000223677
25.0162
-0.00142174
0.000416965
25.0252
0.0158173
0.000525582
25.0418
0.03233
0.000525185
25.0686
0.0473081
0.000267242
25.1021
0.0667534
-0.000374475
25.1496
0.0846724
-0.00163887
25.2161
0.10807
-0.00400247
25.3253
0.1317
-0.00815043
25.4307
0.145299
-0.0150298
-0.0618182
-0.0574449
-0.0588404
-0.0572799
25.579
0.132855
-0.0255827
-0.06128
-0.06475
-0.061844
-0.0674868
25.7138
0.0552643
-0.040484
-0.0425865
-0.0287793
-0.0458062
-0.0323105
25.5923
-0.156289
-0.0581703
0.0209401
0.123975
0.0195828
0.171331
25.5
-0.238657
-0.0769347
0.0835988
0.117406
0.0990331
0.107877
25.4315
-0.250483
-0.0925866
0.0836349
0.149187
0.0318377
0.147028
25.3459
-0.355714
-0.104339
0.136295
0.139429
0.134078
0.136148
25.2614
-0.326684
-0.112265
0.130457
0.1343
0.127633
0.131154
25.1946
-0.337742
-0.117585
0.133867
0.130994
0.130305
0.127051
25.1507
-0.317261
-0.121015
0.124053
0.120987
0.120473
0.116649
25.1263
-0.298397
-0.12316
0.113551
0.113361
0.108701
0.110299
25.1066
-0.283687
-0.124444
0.108891
0.108189
0.10605
0.104709
25.0892
-0.273154
-0.125037
25.079
-0.262976
-0.125075
25.0725
-0.255384
-0.124961
25.0681
-0.249187
-0.124823
25.0648
-0.244413
-0.124523
25.0629
-0.241017
-0.124161
25.061
-0.237556
-0.123761
25.0597
-0.235416
-0.12336
25.0584
-0.23328
-0.122994
25.0575
-0.232073
-0.122682
25.0569
-0.230997
-0.122455
25.0558
-0.229951
-0.122332
25.0553
-0.229622
-0.12224
25.0544
-0.228953
-0.122332
25.0538
-0.22862
-0.122523
25.0541
-0.228501
-0.122853
25.0548
-0.228283
-0.123344
25.0558
-0.227115
-0.124023
-0.226157
-0.124879
25.0066
-0.015308
0.000143908
25.0098
-0.00481454
0.000250457
25.0176
0.00785503
0.000226018
25.0373
0.0127004
5.87388e-05
25.0629
0.0223025
-0.000437603
25.0924
0.0389288
-0.00145834
25.1405
0.0401227
-0.00322011
25.2018
0.0531948
-0.00613103
25.2811
0.0636357
-0.0108538
25.377
0.0676895
-0.0179827
25.4841
0.0541693
-0.0280891
25.5646
0.0166035
-0.0415623
25.5424
-0.0766532
-0.0572749
25.5282
-0.150935
-0.0732622
25.4054
-0.0401822
-0.0872541
25.3228
-0.17437
-0.0984426
25.2724
-0.169753
-0.106355
25.2106
-0.163713
-0.112049
25.1654
-0.156056
-0.115848
25.1332
-0.147768
-0.118353
25.1096
-0.140147
-0.119933
25.0914
-0.134214
-0.120721
25.0786
-0.129124
-0.121037
25.0694
-0.125265
-0.120983
25.0631
-0.122097
-0.12074
25.0587
-0.119776
-0.120247
25.0551
-0.117688
-0.119694
25.0528
-0.116224
-0.11912
25.0512
-0.115315
-0.118498
25.0501
-0.114169
-0.117935
25.0492
-0.113754
-0.117438
25.0483
-0.113039
-0.117036
25.048
-0.112966
-0.116702
25.0474
-0.112566
-0.116492
25.0475
-0.112638
-0.116417
25.0476
-0.11229
-0.116449
25.0482
-0.112442
-0.116599
25.0491
-0.11232
-0.116888
25.0513
-0.11195
-0.117349
-0.112477
-0.118019
24.9869
0.000123229
24.982
0.000221947
24.9898
0.000131103
25.0027
-4.80262e-05
25.0259
-0.000676734
25.0669
-0.00179721
25.111
-0.00370565
25.1714
-0.00681807
25.2472
-0.0117035
25.3342
-0.018749
25.4172
-0.0283602
25.4749
-0.0406999
25.4534
-0.0547813
25.372
-0.0691402
25.4143
-0.082129
25.3335
-0.0931535
25.2652
-0.101206
25.2086
-0.106883
25.1635
-0.110791
25.1292
-0.113393
25.1042
-0.115043
25.0859
-0.115915
25.073
-0.116229
25.0639
-0.116106
25.0576
-0.115809
25.0531
-0.115314
25.0502
-0.114756
25.0482
-0.114244
25.0466
-0.11365
25.0456
-0.113166
25.0446
-0.112798
25.0441
-0.112494
25.0434
-0.112285
25.043
-0.112218
25.0427
-0.112332
25.043
-0.112539
25.0434
-0.112846
25.0443
-0.113271
25.0462
-0.113843
-0.114602
24.9955
0.00159686
0.00230054
24.9886
0.00441341
0.00479164
24.9775
0.00701209
0.00775302
24.9613
0.0101418
0.0114756
24.9398
0.0129489
0.0163026
24.9105
0.0176215
0.0226747
24.8688
0.0258304
0.0310169
24.8117
0.0357376
0.0417721
24.7565
0.0272669
0.0552782
24.7208
-0.00044105
0.0718725
24.6963
-0.0210785
0.0908489
24.6343
0.00615566
0.111602
24.6627
-0.0948038
0.132756
24.78
-0.193721
0.152964
24.8119
-0.117029
0.170556
24.835
-0.115218
0.184943
24.8572
-0.119573
0.196408
24.8755
-0.119831
0.205559
24.8918
-0.120861
0.212711
24.919
-0.134133
0.218172
24.9466
-0.136327
0.222117
24.9685
-0.131879
0.224986
24.9861
-0.128594
0.227024
25.0011
-0.126619
0.228421
25.0137
-0.124753
0.22934
25.0248
-0.12345
0.229898
25.0342
-0.121935
0.230193
25.042
-0.120508
0.230304
25.0488
-0.119428
0.230338
25.0547
-0.118466
0.230369
25.0594
-0.117382
0.230419
25.0632
-0.116446
0.230524
25.0668
-0.116176
0.230672
25.0701
-0.116056
0.230939
25.0729
-0.115588
0.231208
25.0759
-0.115825
0.231548
25.0788
-0.115941
0.231748
25.0821
-0.116255
0.231931
25.0861
-0.116932
0.231849
-0.117547
0.230935
24.9956
0.00325666
0.00224604
24.9886
0.00885746
0.00468773
24.977
0.0146352
0.00760235
24.9608
0.0203854
0.0112864
24.9389
0.0265119
0.0160837
24.9113
0.0335608
0.0224592
24.8784
0.042907
0.0308728
24.8361
0.0566869
0.0418829
24.7737
0.0612903
0.0560193
24.6985
0.0375325
0.0737056
24.656
-0.0261859
0.0946334
24.5949
0.00776777
0.117912
24.6305
-0.201325
0.141674
24.7626
-0.407973
0.164065
24.8428
-0.288693
0.182848
24.9097
-0.280846
0.197875
24.9589
-0.273099
0.209802
24.9983
-0.267841
0.219133
25.0431
-0.277455
0.226349
25.0753
-0.280538
0.23167
25.0945
-0.271489
0.235486
25.1085
-0.263122
0.238222
25.1183
-0.256543
0.240212
25.1261
-0.253197
0.241607
25.1326
-0.250603
0.242558
25.1374
-0.24789
0.243177
25.1409
-0.245309
0.243586
25.144
-0.243689
0.243869
25.1462
-0.241769
0.244099
25.1476
-0.240043
0.244316
25.1487
-0.238792
0.244544
25.1496
-0.237792
0.244797
25.1498
-0.236818
0.245124
25.1497
-0.23661
0.245459
25.1501
-0.236694
0.245804
25.15
-0.236572
0.246117
25.1504
-0.237254
0.246344
25.1515
-0.238226
0.246434
25.1528
-0.238935
0.246307
-0.240251
0.245311
24.9956
0.00495769
0.00214325
24.9889
0.0132374
0.0044856
24.9774
0.0222319
0.00729699
24.9607
0.031422
0.0108728
24.9377
0.0414371
0.0155727
24.9078
0.052268
0.0218942
24.8699
0.065342
0.0304001
24.8235
0.0818305
0.0418125
24.758
0.0980057
0.056974
24.6632
0.0937602
0.0766454
24.5861
0.00487783
0.101048
-0.00515605
0.00456056
-0.00424908
24.7207
-0.0383513
0.128965
-0.058424
-0.0375779
-0.0567432
24.5797
0.0217362
0.157179
-0.0941138
0.0239938
-0.0906465
24.7424
-0.21354
0.183293
-0.12229
-0.209775
-0.117371
24.8322
-0.126872
0.203079
-0.119018
-0.121963
-0.113198
24.8902
-0.115791
0.21822
-0.114361
-0.110453
-0.108333
24.9422
-0.113196
0.230295
-0.113059
-0.107466
-0.10713
25.0065
-0.116184
0.239744
-0.115607
-0.110463
-0.109802
25.0485
-0.113641
0.246875
-0.112809
-0.108166
-0.107917
25.0745
-0.111054
0.251868
-0.109831
-0.106357
-0.104793
25.0932
-0.417098
0.255107
25.1064
-0.404329
0.257414
25.1153
-0.394354
0.259103
25.1221
-0.390129
0.261047
25.1275
-0.386876
0.262377
25.1316
-0.38359
0.263579
25.1349
-0.380341
0.264011
25.1368
-0.377674
0.264529
25.138
-0.375241
0.264942
25.1394
-0.373807
0.265299
25.1395
-0.371375
0.265618
25.1395
-0.370262
0.265915
25.1397
-0.369376
0.265947
25.139
-0.368445
0.266446
25.1381
-0.36821
0.266627
25.1374
-0.368238
0.266716
25.1367
-0.368768
0.266655
25.1362
-0.369614
0.266382
25.1365
-0.370787
0.265867
-0.372024
0.264505
24.9966
0.00631927
0.00198707
24.9901
0.0175087
0.00416802
24.9789
0.0298411
0.00679566
24.9624
0.0426398
0.0101563
24.9393
0.0570484
0.0146177
24.9063
0.0747826
0.0206945
24.8616
0.0953109
0.0290799
24.8036
0.119238
0.0406573
24.7352
0.137771
0.0566954
6.14276
0.0373957
0.0787925
0.0523336
0.0370522
0.051785
6.16241
6.1432
6.16206
-0.0114696
6.12548
0.0161953
0.0173914
-0.0153108
-6.11366
6.10182
-0.0343523
0.0231779
-0.0192926
-6.10597
6.09856
0.0193
0.0292203
-0.0232175
-6.11413
6.14614
-0.257404
0.0351455
-0.0261465
-6.16443
6.1783
-0.154105
0.0395246
-0.028278
-6.19146
6.20214
-0.140858
0.0426464
-0.0300637
-6.21292
6.22711
-0.142602
0.0452667
-0.0315448
-6.2397
6.24683
-0.139195
0.0474465
-0.0326664
-6.25252
6.25767
-0.135174
0.0490831
-0.0334394
-6.26133
6.26525
-0.131769
0.0502658
25.0998
-0.14547
0.281738
-0.146074
-0.14358
-0.141786
-6.26896
-6.27271
-6.26839
-6.27214
25.1063
-0.553427
0.283094
25.1096
-0.540925
0.283897
25.1124
-0.538398
0.286123
25.1138
-0.535175
0.287993
25.1135
-0.531713
0.289945
25.1129
-0.528973
0.291141
25.1115
-0.526072
0.292356
25.1092
-0.523195
0.293351
25.1057
-0.520891
0.294137
25.1019
-0.518215
0.294715
25.0973
-0.516193
0.29509
25.0919
-0.51402
0.294984
25.086
-0.512524
0.295186
25.0797
-0.511221
0.294804
25.0732
-0.510484
0.294256
25.066
-0.509583
0.293281
25.0591
-0.509625
0.291919
25.0534
-0.510742
0.290084
-0.511274
0.287183
24.9982
0.00607249
0.00177575
24.9929
0.020861
0.00372767
24.9832
0.0363816
0.00607596
24.9684
0.0528489
0.00907783
24.9461
0.072682
0.0130779
24.9138
0.097906
0.0183129
24.8651
0.13082
0.026251
24.7924
0.173233
0.037083
6.17322
0.223462
0.05266
6.16628
6.17385
6.16663
-0.00782058
6.15804
0.0484621
0.0119021
-0.0111777
6.13208
0.0170314
-6.1606
0.0194067
0.0111542
0.0196717
0.0108683
-0.0384479
-0.0154255
-6.07967
6.0467
0.0236431
-0.00265311
0.0028797
-0.00271413
0.00284207
0.0245482
-0.0202429
-6.04536
6.05924
0.0310952
0.0519064
-0.040835
0.0514165
-0.0405412
-0.0463797
-0.02509
-6.09989
6.14111
0.038251
-0.0511978
-0.129352
-0.0518625
-0.128856
0.307158
-0.027714
-6.17186
6.18307
0.0419838
-0.049729
-0.0536101
-0.0505479
-0.0528708
0.181395
-0.0296685
-6.19613
6.20985
0.0445821
-0.0502006
-0.050234
-0.0510518
-0.0494176
0.172267
-0.0316384
-6.22324
6.23493
0.0471312
-0.0485063
-0.0491371
-0.0492916
-0.0483471
0.168124
-0.0333276
-6.24442
6.25153
0.0493397
-0.0458816
-0.0465296
-0.0467592
-0.045858
0.161986
-0.0345642
-6.2579
6.26208
0.0510337
-0.0438794
-0.0444291
-0.0443289
-0.0439398
0.156012
-0.0353683
-6.26599
6.2679
0.0522358
-0.0422328
-0.0425997
-0.0422604
-0.0422991
0.150682
-6.27006
-0.0358299
6.27165
-0.164472
0.0532663
25.0403
-0.658865
0.286602
-6.27249
-6.26538
-6.27264
-6.26619
25.0123
-0.65594
0.285487
24.9833
-0.654357
0.284792
24.9549
-0.652787
0.283363
24.9286
-0.652011
0.28188
24.9038
-0.650946
0.280568
24.8808
-0.649105
0.278681
24.8592
-0.646704
0.276957
24.8382
-0.643786
0.275116
24.8183
-0.640606
0.273115
24.7991
-0.637343
0.270685
24.7804
-0.63403
0.268542
24.7621
-0.630647
0.26583
24.7443
-0.627686
0.262841
24.7269
-0.624828
0.25953
24.7104
-0.6224
0.255771
24.6949
-0.620649
0.251448
24.6807
-0.62021
0.246471
-0.622003
0.240453
25.0019
0.00264786
0.00151274
24.9995
0.0216352
0.00316826
24.9917
0.0415865
0.00513763
24.9795
0.0611743
0.00762305
24.9619
0.0848272
0.010898
24.9359
0.116763
0.0148492
24.8936
0.162267
0.0215442
24.8225
0.229134
0.0302439
6.17272
0.334574
0.0430049
6.17169
6.17315
6.17181
-0.00623652
-0.0633428
6.14735
0.0852677
0.00970066
-0.0020498
-0.0189143
-1.52812
1.52292
0.0234674
0.00271521
-0.00302444
-0.0178931
-1.50465
1.49211
0.0296375
0.0038597
-0.00437134
-1.46944
0.0528205
1.47943
-0.0639054
0.00553561
-0.00595176
-1.52907
0.153784
1.54061
-0.166793
0.00748262
-0.00662073
-1.5372
0.0602126
-0.0643885
1.53931
0.00872734
-1.54904
-0.00745362
0.0593367
-0.0642898
0.00959659
1.55186
-0.00845736
0.0565317
-1.55748
1.55889
-0.0600081
0.0105299
-0.00934053
0.0522369
-1.56169
1.5622
-0.0546033
0.0112026
-0.00986785
0.0491851
-1.56276
1.56281
-0.0508398
0.0114802
-0.00996766
0.0465697
-1.5621
1.56165
-0.0476124
0.0114594
-1.55541
-0.0356668
0.175852
6.16251
-0.161494
0.049414
-1.54005
-1.5553
-1.53984
23.8142
-0.754692
0.146813
-6.10014
-5.79843
-6.10298
-5.78841
23.8266
-0.742059
0.143452
23.8386
-0.740716
0.140053
23.8511
-0.738774
0.135666
23.8635
-0.736493
0.131287
23.8756
-0.733447
0.127379
23.8878
-0.729576
0.123245
23.9
-0.725024
0.119601
23.9122
-0.720048
0.116223
23.9242
-0.714809
0.113084
23.9362
-0.70947
0.109905
23.9478
-0.704258
0.107326
23.9594
-0.699181
0.104532
23.9708
-0.694343
0.101686
23.982
-0.689802
0.0986155
23.9933
-0.685605
0.0951412
24.0047
-0.681803
0.0909803
24.0158
-0.67843
0.0856622
-0.675373
0.0782274
25.0089
0.00141974
0.00122212
25.0095
0.0197449
0.0025311
25.006
0.0430939
0.00404248
24.9991
0.0651724
0.00588165
24.989
0.0908967
0.00820415
24.9752
0.125493
0.0107203
24.9555
0.174438
0.0151737
24.9248
0.249681
0.0203234
6.21356
0.374937
0.0273375
6.22143
6.21363
6.22154
-0.0037649
-0.103193
6.19798
0.11665
0.0058941
-0.0011627
-0.0386141
-1.54197
1.53579
0.0444202
0.00154153
-0.00161812
-0.0814172
-1.5057
1.48718
0.0995457
0.00202791
-0.000235333
0.0045383
-0.074789
0.0750538
-0.00481114
0.000243363
0.00632274
-0.259141
0.0240177
-0.0344769
-0.00454128
0.267817
-1.25164
0.0152204
0.0790146
-0.0925881
-0.0128255
1.26281
0.0136618
0.0640722
-1.28092
1.28196
-0.0678038
-0.0109715
0.0116997
0.0574269
-1.28915
1.29325
-0.0636187
-0.00960573
0.00976493
0.0497496
-1.30641
1.31193
-0.056032
-0.00899902
0.00804539
0.0455196
-1.32965
1.33761
-0.0527699
-0.00875226
-1.3848
0.0287227
0.189366
5.80531
-0.218789
-0.0428325
-1.49319
-1.39037
-1.49342
24.1122
-0.694966
-0.225491
-5.86752
-6.17044
-5.84653
-6.17286
24.1551
-0.670067
-0.22551
24.1913
-0.661638
-0.225065
24.2228
-0.654806
-0.224762
24.2496
-0.648292
-0.223984
24.2726
-0.642468
-0.22247
24.2925
-0.637397
-0.220197
24.3101
-0.632826
-0.217208
24.3258
-0.628737
-0.213581
24.3399
-0.625052
-0.20941
24.3529
-0.621924
-0.204853
24.3652
-0.61943
-0.200033
24.3771
-0.617416
-0.195216
24.3887
-0.615502
-0.190528
24.4
-0.613777
-0.186214
24.4114
-0.612146
-0.182526
24.423
-0.61049
-0.179852
24.4348
-0.608267
-0.178623
-0.604384
-0.179531
25.0082
-0.00361812
0.000921187
25.0151
0.0118911
0.00186808
25.0217
0.0351693
0.0028922
25.0255
0.0595655
0.00402993
25.0246
0.0892988
0.00530461
25.0287
0.118499
0.00645351
25.0402
0.159023
0.00812288
25.0679
0.21749
0.00923917
6.27547
0.30707
0.00951854
6.28768
6.27674
6.2908
-0.00100707
-0.108308
6.28276
0.100449
0.00156733
-0.000143655
-0.0438709
-1.57763
1.57929
0.0421653
0.000178568
0.000269762
-0.0814276
-1.59976
1.61634
0.0648939
-0.000345137
0.000870614
-0.0265732
-1.71281
1.75109
0.0595011
-0.000390286
-0.0220143
-0.0275093
-0.0222073
0.00376585
0.111203
-1.71158
1.68031
-0.0793287
-0.0044398
0.107141
-1.60937
0.00536624
1.59804
-0.0941447
-0.00708703
0.00673896
0.075629
-1.5827
-0.00862501
1.58052
-0.0715821
0.00755367
0.0551796
-1.57733
1.57589
-0.0519205
-0.00937308
0.00795667
0.0569597
-1.57517
1.57377
-0.0538374
-0.00967859
0.00810393
0.0512152
-1.573
1.57237
-0.0489322
-0.00975442
0.00801821
0.0476582
-1.56963
1.56996
-0.046347
-0.00965732
-1.57012
0.0313652
0.182865
6.27518
-0.161201
-0.0465705
-1.5702
-1.57034
-1.57099
25.0896
-0.541624
-0.263522
-6.27766
-6.2701
-6.28366
-6.27588
25.089
-0.532712
-0.264963
25.0852
-0.520155
-0.265652
25.0811
-0.511617
-0.266592
25.0768
-0.504007
-0.267385
25.0733
-0.498199
-0.26782
25.07
-0.493114
-0.267901
25.067
-0.488901
-0.26766
25.0643
-0.485453
-0.267139
25.0619
-0.482448
-0.266391
25.0597
-0.480266
-0.265495
25.0582
-0.478895
-0.264755
25.0567
-0.477891
-0.263558
25.0552
-0.476615
-0.262692
25.0544
-0.47628
-0.262021
25.0541
-0.475481
-0.261752
25.0543
-0.474424
-0.262076
25.0551
-0.472421
-0.263181
-0.469818
-0.264999
25.0068
-0.00813943
0.000622605
25.0168
0.00132931
0.00122627
25.0309
0.020363
0.00179457
25.0392
0.0503723
0.00227205
25.0567
0.070872
0.0025598
25.0798
0.0944182
0.00246852
25.1174
0.121082
0.00163494
25.1823
0.15319
-0.000631206
6.32939
0.193855
-0.00558739
6.3185
6.33354
6.31704
-0.0852751
0.00126696
6.34762
0.0677769
-0.00197112
-0.0327554
0.00327526
6.42126
0.0865161
-0.00475839
-0.0307388
-0.0328598
-0.0297183
-6.38018
-0.0292996
0.00699008
6.4924
0.08081
-0.0101789
-0.0287973
-0.0282257
-0.0309631
-6.45281
-0.00944528
0.0122502
-6.54089
6.50013
-0.0582585
-0.0186083
0.062878
-0.0106067
0.0623205
0.0353247
0.0191385
-6.49271
6.47396
-0.144802
-0.0285256
0.0518264
0.0345828
0.0509925
0.0584926
-6.45014
0.0247143
6.40657
-0.183565
-0.0365709
0.0575611
0.0619146
0.060935
0.0561876
0.0280985
-6.36673
6.33932
-0.177779
-0.0415734
0.0542552
0.0550564
0.0531841
0.0460563
0.0303077
-6.3258
6.31889
-0.160034
-0.0448365
0.0455014
0.0451556
0.0447642
0.0450208
0.0317034
-6.31456
6.30646
-0.156537
-0.0469196
0.0455999
0.044293
0.0449083
0.0444056
0.0323839
-6.29749
6.28829
-0.146771
-0.0480877
0.0419504
0.0438461
0.0414188
0.0395148
0.0326645
-6.28066
6.27274
-0.130087
-0.048659
0.0365557
0.0400663
0.0378197
0.141546
-6.27121
0.0329353
6.27152
-0.125816
-0.0489931
25.0705
-0.397611
-0.268432
-6.26995
-6.26809
-6.27059
-6.26792
25.0639
-0.38837
-0.267725
25.0602
-0.379163
-0.266819
25.0574
-0.371627
-0.266247
25.056
-0.365724
-0.265519
25.0548
-0.360623
-0.264554
25.0543
-0.356875
-0.263404
25.0543
-0.353885
-0.262127
25.0542
-0.351079
-0.260783
25.0546
-0.349372
-0.25943
25.0548
-0.347683
-0.258102
25.0551
-0.346904
-0.257145
25.0549