/*--------------------------------*- C++ -*----------------------------------*\
| =========                 |                                                 |
| \\      /  F ield         | OpenFOAM: The Open Source CFD Toolbox           |
|  \\    /   O peration     | Version:  2306                                  |
|   \\  /    A nd           | Website:  www.openfoam.com                      |
|    \\/     M anipulation  |                                                 |
\*---------------------------------------------------------------------------*/
FoamFile
{
    version     2.0;
    format      ascii;
    arch        "LSB;label=32;scalar=64";
    class       volVectorField;
    location    "1.45";
    object      U;
}
// * * * * * * * * * * * * * * * * * * * * * * * * * * * * * * * * * * * * * //

dimensions      [0 1 -1 0 0 0 0];

internalField   nonuniform List<vector> 
111542
(
(99.9933 0.00584754 0.00232107)
(99.9709 0.0119096 0.00494232)
(99.9294 0.018126 0.00794495)
(99.8673 0.0246202 0.0117649)
(99.7834 0.0311178 0.0167752)
(99.6756 0.0368289 0.0234271)
(99.5433 0.0398806 0.0320058)
(99.3886 0.0372929 0.0430424)
(99.2208 0.0244176 0.0570904)
(99.06 -0.00517854 0.0742239)
(98.9392 -0.0572899 0.0939959)
(98.899 -0.129635 0.115461)
(98.9659 -0.204096 0.137595)
(99.1313 -0.260973 0.158464)
(99.3503 -0.289427 0.176728)
(99.5739 -0.298948 0.192242)
(99.7738 -0.298529 0.205012)
(99.9417 -0.292971 0.21539)
(100.078 -0.285275 0.223553)
(100.186 -0.277402 0.229827)
(100.271 -0.270527 0.234275)
(100.336 -0.264669 0.237324)
(100.387 -0.259545 0.239509)
(100.426 -0.255588 0.240878)
(100.457 -0.25268 0.241704)
(100.482 -0.2504 0.242371)
(100.504 -0.24888 0.242788)
(100.521 -0.248007 0.243071)
(100.534 -0.247494 0.243441)
(100.545 -0.247234 0.243934)
(100.554 -0.24721 0.244526)
(100.561 -0.247475 0.245147)
(100.567 -0.247884 0.245929)
(100.571 -0.248426 0.246861)
(100.574 -0.249136 0.247873)
(100.577 -0.250054 0.248875)
(100.581 -0.251252 0.249717)
(100.586 -0.252594 0.250451)
(100.593 -0.254093 0.251014)
(100.606 -0.255942 0.251362)
(99.9936 0.0174098 0.00228247)
(99.9716 0.0353862 0.00480354)
(99.9306 0.0542071 0.00780939)
(99.869 0.0741652 0.0116275)
(99.7845 0.0946145 0.0166236)
(99.6737 0.113435 0.0232415)
(99.5333 0.125675 0.0319583)
(99.3631 0.122495 0.0433431)
(99.1689 0.0892479 0.0579476)
(98.9694 0.00485362 0.0760275)
(98.8058 -0.14816 0.0973756)
(98.7445 -0.36371 0.120182)
(98.83 -0.589449 0.144018)
(99.0412 -0.753116 0.166497)
(99.3055 -0.835552 0.18583)
(99.5575 -0.86634 0.201804)
(99.7721 -0.867918 0.214846)
(99.9468 -0.853989 0.22532)
(100.085 -0.833879 0.233447)
(100.192 -0.812644 0.2395)
(100.274 -0.793222 0.243844)
(100.336 -0.777096 0.246952)
(100.383 -0.764118 0.24919)
(100.42 -0.754177 0.250767)
(100.448 -0.745571 0.251913)
(100.472 -0.737242 0.252849)
(100.491 -0.729692 0.253668)
(100.507 -0.723207 0.254455)
(100.52 -0.717642 0.255278)
(100.531 -0.712984 0.256157)
(100.539 -0.709325 0.257088)
(100.546 -0.706795 0.258066)
(100.551 -0.705264 0.259113)
(100.555 -0.704726 0.260219)
(100.558 -0.70522 0.261338)
(100.561 -0.706774 0.262408)
(100.564 -0.709414 0.263344)
(100.568 -0.712893 0.264093)
(100.574 -0.717084 0.264595)
(100.584 -0.721883 0.264871)
(99.9939 0.0285025 0.00218424)
(99.9731 0.0580029 0.00460261)
(99.9338 0.0896212 0.0075195)
(99.8737 0.124083 0.0112388)
(99.7892 0.161028 0.0161357)
(99.674 0.198061 0.0226962)
(99.5205 0.228817 0.0315115)
(99.3212 0.239619 0.0432904)
(99.0735 0.203798 0.0588169)
(98.7941 0.0728745 0.0787652)
(98.5424 -0.262288 0.103462)
(98.4304 -0.726523 0.131703)
(98.5543 -1.14745 0.157857)
(98.8607 -1.38941 0.18207)
(99.207 -1.48908 0.202126)
(99.5078 -1.51961 0.218311)
(99.7496 -1.50677 0.231521)
(99.9372 -1.47376 0.242067)
(100.079 -1.43497 0.250032)
(100.184 -1.3963 0.255686)
(100.262 -1.36237 0.259665)
(100.319 -1.33118 0.262388)
(100.36 -1.3115 0.264325)
(100.393 -1.30228 0.265945)
(100.421 -1.29642 0.267462)
(100.443 -1.29061 0.268918)
(100.461 -1.28469 0.270332)
(100.475 -1.27894 0.27172)
(100.486 -1.2734 0.273097)
(100.494 -1.2682 0.274474)
(100.499 -1.26361 0.27586)
(100.503 -1.25988 0.277266)
(100.504 -1.25721 0.2787)
(100.505 -1.25573 0.280156)
(100.503 -1.25558 0.281597)
(100.502 -1.25683 0.282958)
(100.5 -1.25952 0.284138)
(100.499 -1.26354 0.285036)
(100.5 -1.26861 0.285579)
(100.504 -1.27409 0.285842)
(99.9946 0.038602 0.00203061)
(99.9759 0.0788964 0.00428851)
(99.9402 0.123045 0.00702191)
(99.8844 0.172912 0.0105227)
(99.8032 0.229553 0.0151671)
(99.687 0.292344 0.0214638)
(99.5216 0.356977 0.0300873)
(99.2862 0.410832 0.041905)
(98.9519 0.424172 0.0580296)
(98.4542 0.222742 0.079895)
(98.1975 0.0425292 0.0866886)
(97.851 -0.615513 0.102568)
(97.9166 -1.41988 0.116583)
(98.3957 -1.93644 0.128269)
(98.8978 -2.08938 0.139721)
(99.2912 -2.12478 0.148188)
(99.6053 -2.09334 0.154986)
(99.8386 -2.02975 0.160361)
(100.007 -1.96114 0.164253)
(100.129 -1.90016 0.166847)
(100.285 -1.97356 0.279196)
(100.324 -1.90964 0.282013)
(100.339 -1.8629 0.282854)
(100.35 -1.83408 0.28341)
(100.361 -1.81421 0.284556)
(100.371 -1.79998 0.286292)
(100.375 -1.79007 0.288417)
(100.374 -1.78316 0.290748)
(100.369 -1.77825 0.293139)
(100.36 -1.77486 0.295468)
(100.347 -1.77281 0.297654)
(100.331 -1.77204 0.299652)
(100.311 -1.77255 0.30144)
(100.289 -1.77437 0.302997)
(100.264 -1.77753 0.304286)
(100.237 -1.78207 0.305242)
(100.21 -1.78806 0.305756)
(100.182 -1.79553 0.305706)
(100.156 -1.80426 0.305004)
(100.127 -1.81297 0.303772)
(99.9956 0.0469453 0.00181935)
(99.9805 0.0964161 0.00384707)
(99.9512 0.151853 0.00629531)
(99.9043 0.216831 0.00942253)
(99.8336 0.294978 0.013575)
(99.7274 0.38986 0.0192282)
(99.5663 0.504155 0.0270442)
(99.3176 0.63643 0.0379047)
(98.8762 0.773215 0.052992)
(98.5326 0.77948 0.0584442)
(97.7206 0.387673 0.0723654)
(96.9172 -0.681574 0.0901686)
(97.0133 -2.3365 0.104271)
(98.14 -2.93985 0.11425)
(98.8604 -2.97124 0.126976)
(99.3245 -2.93687 0.135655)
(99.6808 -2.83051 0.143094)
(99.9154 -2.70964 0.149209)
(100.068 -2.59958 0.15351)
(100.162 -2.51144 0.156465)
(100.224 -2.46858 0.160903)
(100.13 -2.59708 0.297105)
(100.006 -2.58038 0.291697)
(99.8883 -2.55215 0.285595)
(99.7849 -2.51988 0.280381)
(99.6875 -2.49094 0.276563)
(99.5938 -2.46623 0.274168)
(99.5038 -2.44465 0.273014)
(99.4171 -2.42557 0.272808)
(99.3329 -2.40883 0.27321)
(99.2507 -2.39443 0.273887)
(99.1699 -2.38237 0.274546)
(99.0906 -2.37262 0.274949)
(99.0126 -2.36514 0.274903)
(98.9361 -2.35989 0.274261)
(98.8615 -2.35685 0.272894)
(98.7894 -2.35609 0.270657)
(98.7209 -2.3579 0.26741)
(98.6584 -2.36309 0.263046)
(98.5962 -2.37395 0.257652)
(99.9971 0.052592 0.00155321)
(99.9871 0.10851 0.00328182)
(99.9674 0.172432 0.00534207)
(99.9352 0.249765 0.00793101)
(99.8849 0.347199 0.0113149)
(99.8061 0.473904 0.0158553)
(99.6794 0.643405 0.0220488)
(99.4683 0.875887 0.030535)
(99.0484 1.20272 0.042107)
(98.639 1.36351 0.0466999)
(97.6837 1.50228 0.0452178)
(95.5735 0.725179 0.0420466)
(94.3811 -3.42766 0.0555769)
(98.1948 -4.71163 0.0460973)
(98.7126 -3.90474 0.0590537)
(99.2776 -3.83052 0.0327601)
(99.6587 -3.62169 -0.001965)
(99.8135 -3.41046 -0.0313395)
(99.8396 -3.23868 -0.0510205)
(99.7703 -3.08083 -0.0572033)
(98.5181 -2.92059 0.116961)
(95.0663 -2.58283 0.15395)
(95.129 -2.6298 0.138466)
(95.2119 -2.64696 0.128112)
(95.2853 -2.65234 0.120288)
(95.35 -2.65656 0.113936)
(95.4116 -2.6611 0.108567)
(95.4718 -2.66528 0.10376)
(95.5307 -2.66877 0.0991521)
(95.5877 -2.67164 0.0944688)
(95.6429 -2.67397 0.0895136)
(95.6964 -2.67586 0.0841562)
(95.7482 -2.67742 0.0783115)
(95.7985 -2.67876 0.0719486)
(95.8475 -2.67998 0.0650713)
(95.8954 -2.68123 0.0576965)
(95.9428 -2.68269 0.0498313)
(95.9899 -2.68476 0.0414474)
(96.0362 -2.68835 0.0325091)
(96.0884 -2.69601 0.0232863)
(99.9989 0.0546002 0.00126889)
(99.9954 0.113054 0.00264068)
(99.9881 0.180845 0.00422304)
(99.9757 0.26464 0.00613615)
(99.9554 0.373318 0.0085212)
(99.9225 0.520343 0.011549)
(99.8685 0.727664 0.0153979)
(99.7788 1.03381 0.0201748)
(99.6049 1.51226 0.0257596)
(99.3356 1.91205 0.0280938)
(98.6118 2.84724 0.0255145)
(95.4586 5.84153 0.0174694)
(77.0947 -4.24793 0.0192819)
(102.735 -10.289 0.0214675)
(53.6611 -3.49837 0.0521659)
(75.4509 -4.45059 0.259988)
(78.9394 -3.55629 0.188847)
(81.5454 -3.14283 0.127323)
(83.7204 -2.93939 0.0680121)
(85.6903 -2.89146 0.00480742)
(93.1257 -3.73158 -0.0968174)
(96.4473 -3.39253 -0.217245)
(96.55 -3.26419 -0.214591)
(96.6689 -3.16821 -0.214039)
(96.7696 -3.09479 -0.2155)
(96.8584 -3.03569 -0.218642)
(96.9433 -2.98685 -0.222715)
(97.0262 -2.946 -0.227113)
(97.1067 -2.9115 -0.231429)
(97.1842 -2.88216 -0.23538)
(97.2589 -2.85705 -0.238774)
(97.3309 -2.83547 -0.241506)
(97.4005 -2.81681 -0.24355)
(97.4678 -2.80054 -0.244938)
(97.533 -2.78617 -0.245751)
(97.5963 -2.77325 -0.246113)
(97.6579 -2.76128 -0.246216)
(97.7179 -2.7497 -0.246303)
(97.7763 -2.73753 -0.246678)
(97.8463 -2.72241 -0.247575)
(100.001 0.0525891 0.00102644)
(100.004 0.108888 0.00202257)
(100.011 0.174629 0.00309423)
(100.02 0.256656 0.00427352)
(100.034 0.364067 0.00556198)
(100.055 0.510429 0.00691342)
(100.089 0.717136 0.00816099)
(100.151 1.02002 0.00885891)
(100.295 1.48141 0.00802072)
(100.342 1.8926 0.00762981)
(100.614 2.87924 0.00337618)
(102.43 5.41657 -0.0064637)
(111.195 3.94047 -0.0607166)
(109.137 -6.74209 0.014411)
(102.822 -6.80866 -0.0415233)
(101.145 -5.0089 -0.0406685)
(100.698 -4.0171 -0.0291607)
(100.525 -3.4817 -0.0224457)
(100.437 -3.17429 -0.0208456)
(100.364 -2.99457 -0.0239595)
(100.265 -2.77839 -0.129261)
(100.282 -2.35992 -0.257517)
(100.263 -2.25089 -0.257211)
(100.25 -2.18442 -0.256436)
(100.241 -2.14358 -0.256042)
(100.232 -2.11507 -0.256256)
(100.224 -2.09384 -0.256907)
(100.218 -2.0781 -0.257863)
(100.214 -2.06672 -0.259071)
(100.211 -2.05881 -0.260486)
(100.208 -2.05375 -0.262052)
(100.205 -2.05109 -0.26372)
(100.202 -2.05041 -0.265452)
(100.2 -2.05124 -0.267231)
(100.197 -2.05309 -0.269064)
(100.194 -2.05537 -0.270996)
(100.192 -2.05743 -0.273114)
(100.192 -2.05842 -0.275535)
(100.194 -2.05707 -0.278383)
(100.202 -2.0511 -0.281613)
(100.003 0.0461542 0.000634674)
(100.013 0.0955792 0.00130171)
(100.032 0.153328 0.00193169)
(100.062 0.225285 0.0024399)
(100.107 0.318909 0.00271693)
(100.174 0.444325 0.00255032)
(100.279 0.6157 0.00152057)
(100.446 0.852556 -0.00114649)
(100.763 1.17942 -0.00688629)
(100.988 1.41968 -0.00916768)
(101.841 1.87835 -0.0171867)
(103.462 1.78542 -0.0318995)
(105.261 -0.226454 -0.0493488)
(104.813 -2.83112 -0.0303438)
(103.007 -3.56234 -0.0507119)
(101.784 -3.35275 -0.0680629)
(101.151 -3.00825 -0.0790737)
(100.809 -2.71849 -0.0860605)
(100.61 -2.50262 -0.0905485)
(100.477 -2.34224 -0.093645)
(100.382 -2.21396 -0.0966636)
(100.279 -1.92544 -0.256697)
(100.245 -1.88614 -0.256531)
(100.223 -1.85543 -0.255837)
(100.211 -1.832 -0.255416)
(100.204 -1.81261 -0.255351)
(100.2 -1.79565 -0.255474)
(100.199 -1.78087 -0.25565)
(100.198 -1.76823 -0.255808)
(100.199 -1.75755 -0.255915)
(100.199 -1.74863 -0.255967)
(100.2 -1.74127 -0.255985)
(100.2 -1.7352 -0.256002)
(100.2 -1.73013 -0.256059)
(100.2 -1.72568 -0.256201)
(100.2 -1.72142 -0.25648)
(100.201 -1.71687 -0.256964)
(100.203 -1.7115 -0.257735)
(100.209 -1.70486 -0.258899)
(100.224 -1.69696 -0.260609)
(100.004 0.035792 0.000449291)
(100.02 0.0742273 0.000857293)
(100.049 0.118979 0.0010895)
(100.095 0.174309 0.00102435)
(100.164 0.245218 0.000479763)
(100.264 0.337496 -0.000874504)
(100.411 0.457388 -0.00358887)
(100.63 0.609343 -0.00856168)
(100.965 0.789577 -0.0172602)
(101.453 0.873895 -0.0315911)
(102.096 0.776135 -0.0533681)
(102.776 0.245801 -0.0831131)
(103.139 -0.748593 -0.116127)
(102.893 -1.58736 -0.146254)
(102.248 -1.90067 -0.176776)
(101.612 -1.91222 -0.201585)
(101.161 -1.83209 -0.218945)
(100.867 -1.73249 -0.23066)
(100.67 -1.63747 -0.238494)
(100.531 -1.55269 -0.243534)
(100.436 -1.4779 -0.246601)
(100.372 -1.40949 -0.248316)
(100.328 -1.35271 -0.248993)
(100.299 -1.30495 -0.249177)
(100.278 -1.26574 -0.249152)
(100.264 -1.23384 -0.249014)
(100.253 -1.20775 -0.248821)
(100.246 -1.18645 -0.248623)
(100.24 -1.16922 -0.248468)
(100.235 -1.15553 -0.248398)
(100.231 -1.14486 -0.248451)
(100.227 -1.13676 -0.248659)
(100.224 -1.13082 -0.249047)
(100.221 -1.12659 -0.249627)
(100.218 -1.12356 -0.250417)
(100.216 -1.1213 -0.25143)
(100.215 -1.11931 -0.252688)
(100.216 -1.11717 -0.254221)
(100.219 -1.11455 -0.25608)
(100.226 -1.11152 -0.258336)
(100.005 0.0227166 0.000291832)
(100.025 0.0469789 0.000476023)
(100.061 0.0751948 0.000429351)
(100.118 0.109665 -2.99737e-06)
(100.201 0.153262 -0.00110114)
(100.319 0.208358 -0.00321806)
(100.484 0.276386 -0.00693686)
(100.713 0.354828 -0.0130911)
(101.024 0.430741 -0.0228396)
(101.426 0.464852 -0.0375038)
(101.893 0.400866 -0.0582065)
(102.326 0.163345 -0.0852113)
(102.551 -0.258947 -0.115991)
(102.436 -0.692084 -0.146097)
(102.046 -0.940894 -0.173751)
(101.583 -1.00505 -0.196294)
(101.2 -0.980667 -0.213243)
(100.922 -0.930505 -0.225329)
(100.723 -0.877919 -0.233796)
(100.577 -0.829302 -0.239517)
(100.469 -0.786999 -0.243135)
(100.39 -0.753655 -0.245182)
(100.333 -0.729095 -0.246116)
(100.291 -0.711359 -0.246247)
(100.262 -0.69877 -0.24584)
(100.241 -0.690139 -0.245111)
(100.226 -0.684398 -0.244228)
(100.215 -0.680754 -0.243313)
(100.207 -0.678713 -0.242451)
(100.202 -0.677956 -0.241702)
(100.198 -0.678207 -0.241111)
(100.195 -0.679238 -0.240708)
(100.192 -0.680827 -0.240505)
(100.19 -0.682796 -0.24051)
(100.189 -0.684661 -0.240752)
(100.189 -0.686343 -0.241207)
(100.19 -0.687654 -0.241871)
(100.194 -0.688388 -0.242765)
(100.2 -0.688414 -0.243953)
(100.215 -0.687594 -0.245616)
(100.006 0.00778395 0.000199374)
(100.027 0.0160446 0.00031599)
(100.067 0.0256855 9.61068e-05)
(100.129 0.0373286 -0.000467974)
(100.218 0.0520025 -0.00185475)
(100.344 0.070244 -0.00434242)
(100.515 0.092044 -0.00855286)
(100.743 0.115914 -0.015203)
(101.036 0.136734 -0.0254286)
(101.387 0.141861 -0.0400048)
(101.763 0.111287 -0.0596111)
(102.087 0.0242159 -0.0841149)
(102.254 -0.116235 -0.111904)
(102.188 -0.262388 -0.140152)
(101.913 -0.356289 -0.165685)
(101.547 -0.386872 -0.187156)
(101.208 -0.382878 -0.204054)
(100.94 -0.368712 -0.216444)
(100.741 -0.353433 -0.225285)
(100.59 -0.339194 -0.231327)
(100.478 -0.326614 -0.2352)
(100.394 -0.316098 -0.237398)
(100.334 -0.307118 -0.238347)
(100.291 -0.29908 -0.238327)
(100.26 -0.291458 -0.237759)
(100.239 -0.28409 -0.236887)
(100.224 -0.276925 -0.235879)
(100.213 -0.269967 -0.234868)
(100.205 -0.263281 -0.233953)
(100.199 -0.256953 -0.233211)
(100.194 -0.251055 -0.232688)
(100.191 -0.245635 -0.23241)
(100.188 -0.240726 -0.232374)
(100.185 -0.236364 -0.232526)
(100.184 -0.232308 -0.233058)
(100.183 -0.228629 -0.233825)
(100.184 -0.2253 -0.234782)
(100.186 -0.222273 -0.23594)
(100.191 -0.219616 -0.237357)
(100.201 -0.2178 -0.239222)
(99.9935 0.00580943 0.00693688)
(99.9714 0.011772 0.0146094)
(99.9303 0.0179933 0.0236056)
(99.8692 0.0244888 0.0349811)
(99.7869 0.0309748 0.0497857)
(99.6813 0.0366577 0.0692574)
(99.5516 0.0398507 0.094515)
(99.4004 0.0376098 0.127046)
(99.2365 0.0252842 0.168233)
(99.0791 -0.00340365 0.21844)
(98.9605 -0.0540667 0.276777)
(98.9206 -0.125074 0.340491)
(98.985 -0.197541 0.405429)
(99.1449 -0.252461 0.466361)
(99.3576 -0.279708 0.519427)
(99.5755 -0.288599 0.563948)
(99.7715 -0.28778 0.60029)
(99.9375 -0.282034 0.629449)
(100.074 -0.274324 0.652152)
(100.183 -0.266683 0.669288)
(100.27 -0.259858 0.68149)
(100.338 -0.253915 0.689916)
(100.391 -0.248728 0.695774)
(100.433 -0.244563 0.699483)
(100.466 -0.241332 0.701577)
(100.493 -0.238791 0.702685)
(100.514 -0.236869 0.70289)
(100.531 -0.235495 0.702546)
(100.543 -0.234537 0.702113)
(100.553 -0.2339 0.701767)
(100.559 -0.23354 0.701567)
(100.564 -0.233447 0.7015)
(100.566 -0.233594 0.701759)
(100.568 -0.233971 0.702324)
(100.569 -0.23458 0.703064)
(100.571 -0.235436 0.703808)
(100.573 -0.236546 0.704306)
(100.577 -0.23788 0.704531)
(100.583 -0.23945 0.704279)
(100.596 -0.241374 0.703319)
(99.9937 0.0172745 0.00680016)
(99.972 0.0350508 0.0142739)
(99.9316 0.0537905 0.0231961)
(99.8712 0.0736552 0.0344984)
(99.7884 0.0940023 0.0492413)
(99.6799 0.112756 0.0687157)
(99.5429 0.12526 0.0943738)
(99.3768 0.122842 0.127906)
(99.1874 0.0910645 0.170937)
(98.9929 0.00939228 0.22441)
(98.8327 -0.139158 0.287852)
(98.7731 -0.347924 0.357991)
(98.8573 -0.568602 0.429625)
(99.063 -0.72975 0.495881)
(99.3201 -0.810063 0.551871)
(99.5658 -0.839797 0.597579)
(99.7759 -0.840614 0.634407)
(99.9479 -0.826299 0.663597)
(100.085 -0.806281 0.685989)
(100.192 -0.7856 0.702444)
(100.275 -0.766616 0.71401)
(100.339 -0.750813 0.722195)
(100.388 -0.738088 0.727971)
(100.426 -0.727907 0.731759)
(100.456 -0.718639 0.733983)
(100.48 -0.709564 0.73516)
(100.499 -0.701081 0.73568)
(100.514 -0.693582 0.735887)
(100.526 -0.687116 0.736042)
(100.536 -0.681692 0.73628)
(100.542 -0.677362 0.736662)
(100.547 -0.674172 0.737217)
(100.55 -0.672092 0.737977)
(100.553 -0.671121 0.7389)
(100.554 -0.671257 0.739876)
(100.556 -0.672486 0.740756)
(100.558 -0.6748 0.74136)
(100.561 -0.678108 0.741535)
(100.567 -0.682274 0.741094)
(100.578 -0.687099 0.739898)
(99.994 0.0282525 0.00650328)
(99.9735 0.0574945 0.0136761)
(99.9349 0.0888481 0.0223073)
(99.8761 0.123006 0.0333)
(99.7935 0.159619 0.0477591)
(99.6811 0.196377 0.0671082)
(99.5317 0.227105 0.093117)
(99.3378 0.238424 0.127936)
(99.0968 0.204186 0.173946)
(98.8251 0.0768141 0.233221)
(98.5805 -0.250592 0.30629)
(98.4717 -0.704605 0.389227)
(98.5925 -1.11638 0.471744)
(98.892 -1.35382 0.545547)
(99.2297 -1.45146 0.604722)
(99.5232 -1.48085 0.65143)
(99.7601 -1.46699 0.688744)
(99.9445 -1.43339 0.718055)
(100.084 -1.39447 0.739951)
(100.189 -1.35585 0.755236)
(100.266 -1.32124 0.765118)
(100.323 -1.28963 0.771888)
(100.365 -1.27057 0.776944)
(100.398 -1.2616 0.780705)
(100.426 -1.25508 0.783285)
(100.448 -1.24796 0.784944)
(100.465 -1.24042 0.786043)
(100.479 -1.23298 0.78687)
(100.488 -1.22588 0.787608)
(100.495 -1.21935 0.788356)
(100.5 -1.21365 0.78915)
(100.503 -1.20902 0.789991)
(100.504 -1.20561 0.79085)
(100.504 -1.20351 0.791661)
(100.503 -1.20281 0.792318)
(100.501 -1.20358 0.792675)
(100.499 -1.20588 0.792557)
(100.498 -1.20969 0.791779)
(100.499 -1.21481 0.790209)
(100.504 -1.22053 0.787936)
(99.9946 0.0382404 0.0060389)
(99.9763 0.0781503 0.0127264)
(99.9414 0.121841 0.020805)
(99.887 0.171134 0.0311477)
(99.8079 0.22706 0.0448766)
(99.6949 0.289012 0.0635049)
(99.5341 0.352761 0.0890801)
(99.3053 0.405884 0.124293)
(98.9797 0.419028 0.172633)
(98.494 0.220998 0.23843)
(98.238 0.0379933 0.271567)
(97.8993 -0.622181 0.348436)
(97.9683 -1.42235 0.428835)
(98.4449 -1.94193 0.501566)
(98.9383 -2.09644 0.557956)
(99.3248 -2.13348 0.600956)
(99.6338 -2.10152 0.635659)
(99.8628 -2.03646 0.663382)
(100.027 -1.96645 0.684158)
(100.146 -1.90413 0.698648)
(100.288 -1.93947 0.831527)
(100.323 -1.8739 0.836086)
(100.335 -1.82788 0.837677)
(100.345 -1.80076 0.838871)
(100.357 -1.78229 0.84065)
(100.367 -1.76875 0.842955)
(100.371 -1.75874 0.845593)
(100.371 -1.75107 0.848422)
(100.366 -1.74488 0.851314)
(100.359 -1.73983 0.854132)
(100.347 -1.73579 0.856744)
(100.333 -1.73277 0.85902)
(100.315 -1.73079 0.860836)
(100.295 -1.72987 0.862056)
(100.273 -1.73012 0.862533)
(100.249 -1.73169 0.862091)
(100.223 -1.73479 0.860512)
(100.197 -1.73971 0.857553)
(100.173 -1.7465 0.852993)
(100.146 -1.75412 0.846803)
(99.9957 0.0464722 0.00540166)
(99.9809 0.0954213 0.0113954)
(99.9524 0.150197 0.0186249)
(99.9069 0.214283 0.0278691)
(99.8382 0.291206 0.0401704)
(99.7352 0.384411 0.0569791)
(99.5788 0.496429 0.0803479)
(99.3368 0.625653 0.113105)
(98.9057 0.758328 0.159089)
(98.5649 0.759401 0.185322)
(97.764 0.366354 0.252612)
(96.9727 -0.700147 0.339036)
(97.0769 -2.34205 0.434131)
(98.1988 -2.94475 0.514622)
(98.9078 -2.97304 0.569355)
(99.366 -2.93708 0.61021)
(99.7182 -2.82454 0.646281)
(99.9472 -2.69734 0.676283)
(100.093 -2.58381 0.698149)
(100.181 -2.4949 0.712423)
(100.236 -2.44844 0.72277)
(100.126 -2.57948 0.84694)
(99.9911 -2.57503 0.835018)
(99.8661 -2.55406 0.821731)
(99.7578 -2.52656 0.80997)
(99.6578 -2.50052 0.800393)
(99.5633 -2.47707 0.792738)
(99.4743 -2.45537 0.786595)
(99.3901 -2.43507 0.78159)
(99.3098 -2.41623 0.777375)
(99.2326 -2.39894 0.773614)
(99.1578 -2.38324 0.76998)
(99.0852 -2.36912 0.766155)
(99.0144 -2.35659 0.761834)
(98.9453 -2.34572 0.756717)
(98.8779 -2.33668 0.750492)
(98.8125 -2.32982 0.742778)
(98.7499 -2.32585 0.733121)
(98.692 -2.32611 0.721042)
(98.6342 -2.33326 0.706448)
(99.9971 0.0520451 0.00460133)
(99.9875 0.107315 0.00968782)
(99.9685 0.170382 0.0157566)
(99.9375 0.246519 0.0234105)
(99.8889 0.342218 0.0334672)
(99.8127 0.466371 0.0470634)
(99.6898 0.632055 0.0657904)
(99.484 0.85876 0.0918451)
(99.0721 1.17668 0.12811)
(98.6658 1.33349 0.150055)
(97.7181 1.46599 0.180968)
(95.6257 0.681939 0.238378)
(94.4508 -3.4656 0.333954)
(98.2897 -4.72142 0.43077)
(98.7842 -3.90922 0.505106)
(99.3548 -3.85531 0.579246)
(99.7338 -3.62244 0.665864)
(99.8789 -3.38094 0.728666)
(99.8968 -3.18321 0.749707)
(99.8249 -3.0126 0.733627)
(98.6849 -2.77756 0.693407)
(95.0843 -2.45111 0.461723)
(95.1424 -2.56648 0.426736)
(95.2191 -2.63736 0.401366)
(95.284 -2.68256 0.382467)
(95.3404 -2.714 0.368181)
(95.3945 -2.7346 0.357189)
(95.4486 -2.74551 0.348568)
(95.5024 -2.74838 0.341755)
(95.5554 -2.7451 0.336389)
(95.6074 -2.73735 0.332169)
(95.6584 -2.72647 0.328788)
(95.7084 -2.71354 0.32583)
(95.7573 -2.69943 0.32285)
(95.8055 -2.68485 0.319357)
(95.8531 -2.67047 0.314782)
(95.9005 -2.65702 0.308431)
(95.9478 -2.64545 0.299408)
(95.9947 -2.63735 0.286471)
(96.0514 -2.63601 0.267723)
(99.999 0.0540591 0.00371631)
(99.9957 0.111789 0.00775251)
(99.9889 0.178598 0.0124163)
(99.9773 0.260995 0.0180758)
(99.9583 0.3676 0.0251892)
(99.9269 0.511484 0.0343308)
(99.8749 0.713952 0.0461807)
(99.7873 1.01252 0.0613421)
(99.6149 1.47897 0.0798845)
(99.3467 1.87195 0.0911109)
(98.625 2.79331 0.10331)
(95.4727 5.75322 0.127675)
(77.2559 -4.49404 0.258914)
(65.5848 -7.8703 -1.32141)
(79.6061 -5.93762 -1.15805)
(81.4338 -4.6151 -0.968205)
(82.4902 -3.77117 -0.763543)
(83.6392 -3.24826 -0.609874)
(85.2073 -3.02929 -0.503821)
(92.4479 -3.63734 -0.580458)
(96.2921 -3.39561 -0.68078)
(96.4827 -3.29881 -0.669615)
(96.6684 -3.22899 -0.65954)
(96.8137 -3.17532 -0.651235)
(96.9291 -3.12989 -0.643921)
(97.0269 -3.08927 -0.636441)
(97.1124 -3.05195 -0.628162)
(97.188 -3.01721 -0.618874)
(97.2556 -2.98472 -0.60858)
(97.3167 -2.95442 -0.597422)
(97.3728 -2.92633 -0.585653)
(97.4251 -2.90046 -0.573592)
(97.4744 -2.87676 -0.561637)
(97.5217 -2.85512 -0.550244)
(97.5678 -2.83535 -0.53995)
(97.6136 -2.81718 -0.531462)
(97.6599 -2.80016 -0.525684)
(97.7072 -2.78342 -0.523878)
(97.7688 -2.76482 -0.527756)
(100.001 0.0519376 0.00285155)
(100.005 0.107542 0.00576167)
(100.011 0.172336 0.00891721)
(100.021 0.252971 0.0124106)
(100.036 0.358292 0.0162832)
(100.057 0.501472 0.0204674)
(100.091 0.70333 0.0245773)
(100.152 0.998844 0.0274815)
(100.29 1.44915 0.0264285)
(100.335 1.8538 0.0245121)
(100.6 2.82714 0.012986)
(102.391 5.34097 -0.0203053)
(110.994 4.02943 -0.0129771)
(109.02 -6.58086 -0.231892)
(102.744 -6.77582 -0.386317)
(101.091 -4.96526 -0.493757)
(100.661 -3.97006 -0.553363)
(100.507 -3.42822 -0.579151)
(100.438 -3.11751 -0.581799)
(100.382 -2.94235 -0.571423)
(100.29 -2.77403 -0.620564)
(100.313 -2.39308 -0.76279)
(100.298 -2.29231 -0.763656)
(100.285 -2.22973 -0.761286)
(100.273 -2.18988 -0.758832)
(100.26 -2.16036 -0.756901)
(100.247 -2.13709 -0.755026)
(100.236 -2.11899 -0.752867)
(100.226 -2.10535 -0.750305)
(100.218 -2.09552 -0.747326)
(100.21 -2.08894 -0.743995)
(100.203 -2.08514 -0.740453)
(100.197 -2.08364 -0.73689)
(100.192 -2.08395 -0.733506)
(100.188 -2.08552 -0.730589)
(100.186 -2.08774 -0.728475)
(100.184 -2.08995 -0.727617)
(100.184 -2.09122 -0.72858)
(100.188 -2.09018 -0.731998)
(100.199 -2.08452 -0.73817)
(100.003 0.0455662 0.00185606)
(100.013 0.0944056 0.00376084)
(100.032 0.151317 0.00554988)
(100.062 0.222045 0.00702644)
(100.107 0.313848 0.00788205)
(100.174 0.436546 0.00752243)
(100.277 0.603947 0.00478651)
(100.44 0.835089 -0.00251155)
(100.751 1.1539 -0.0184842)
(100.972 1.38976 -0.0297181)
(101.809 1.8398 -0.0689984)
(103.406 1.74099 -0.142848)
(105.173 -0.248367 -0.247765)
(104.72 -2.81776 -0.368083)
(102.946 -3.5549 -0.467395)
(101.744 -3.34407 -0.535062)
(101.126 -3.00298 -0.578387)
(100.796 -2.71794 -0.604961)
(100.604 -2.50666 -0.620512)
(100.476 -2.35062 -0.629355)
(100.383 -2.22331 -0.635017)
(100.285 -1.92026 -0.783815)
(100.253 -1.8805 -0.782369)
(100.231 -1.84967 -0.779134)
(100.218 -1.82585 -0.775452)
(100.211 -1.80566 -0.771586)
(100.206 -1.78769 -0.767484)
(100.204 -1.77183 -0.763153)
(100.203 -1.75809 -0.758665)
(100.203 -1.74634 -0.754107)
(100.203 -1.7364 -0.749588)
(100.204 -1.72808 -0.745232)
(100.204 -1.72112 -0.741182)
(100.205 -1.71521 -0.737572)
(100.205 -1.70994 -0.73459)
(100.205 -1.70483 -0.732453)
(100.206 -1.69938 -0.731441)
(100.208 -1.69297 -0.731893)
(100.212 -1.6851 -0.734187)
(100.226 -1.67592 -0.738614)
(100.004 0.0354411 0.00120222)
(100.02 0.0733871 0.00227487)
(100.049 0.117468 0.00289703)
(100.095 0.17189 0.00270641)
(100.163 0.241415 0.00113928)
(100.262 0.331723 -0.00274135)
(100.407 0.448884 -0.0104964)
(100.622 0.59719 -0.024703)
(100.949 0.772814 -0.0495748)
(101.426 0.855491 -0.0911377)
(102.053 0.760483 -0.155409)
(102.718 0.242021 -0.245712)
(103.071 -0.727085 -0.353025)
(102.828 -1.54988 -0.466288)
(102.198 -1.85998 -0.561792)
(101.581 -1.87161 -0.631132)
(101.143 -1.79327 -0.678061)
(100.858 -1.69642 -0.709162)
(100.665 -1.60408 -0.72948)
(100.529 -1.52136 -0.742042)
(100.434 -1.44789 -0.748852)
(100.37 -1.37974 -0.75127)
(100.326 -1.32385 -0.751735)
(100.295 -1.27685 -0.75106)
(100.274 -1.23771 -0.749367)
(100.259 -1.2053 -0.746894)
(100.249 -1.17843 -0.743992)
(100.241 -1.15629 -0.740953)
(100.236 -1.13832 -0.737989)
(100.233 -1.12405 -0.735259)
(100.23 -1.11301 -0.732894)
(100.228 -1.10475 -0.730995)
(100.226 -1.09881 -0.729645)
(100.224 -1.09474 -0.728895)
(100.222 -1.092 -0.728814)
(100.221 -1.09007 -0.729477)
(100.22 -1.08843 -0.730985)
(100.221 -1.08655 -0.733477)
(100.224 -1.08409 -0.737099)
(100.229 -1.08114 -0.741865)
(100.005 0.0224652 0.000716166)
(100.025 0.0464486 0.00116407)
(100.061 0.0742439 0.000976091)
(100.118 0.108234 -0.000324829)
(100.2 0.150978 -0.00351424)
(100.317 0.204947 -0.00963825)
(100.48 0.27153 -0.0203572)
(100.704 0.348307 -0.038116)
(101.009 0.422551 -0.0662936)
(101.402 0.456271 -0.108968)
(101.858 0.394329 -0.169824)
(102.281 0.162378 -0.249822)
(102.502 -0.251974 -0.343504)
(102.391 -0.676046 -0.438932)
(102.011 -0.91779 -0.523384)
(101.562 -0.979302 -0.588891)
(101.19 -0.954808 -0.636068)
(100.919 -0.905704 -0.66917)
(100.723 -0.85451 -0.692045)
(100.578 -0.807274 -0.707192)
(100.469 -0.766135 -0.716381)
(100.388 -0.733567 -0.721107)
(100.329 -0.709518 -0.722964)
(100.286 -0.691779 -0.722711)
(100.255 -0.678826 -0.720803)
(100.233 -0.669616 -0.717734)
(100.217 -0.663208 -0.714)
(100.207 -0.65889 -0.71)
(100.201 -0.656232 -0.70603)
(100.197 -0.65495 -0.70231)
(100.195 -0.654779 -0.699004)
(100.194 -0.655486 -0.69623)
(100.194 -0.656822 -0.694061)
(100.194 -0.658543 -0.692543)
(100.195 -0.660341 -0.691749)
(100.197 -0.661975 -0.691681)
(100.199 -0.663185 -0.692367)
(100.202 -0.663753 -0.693892)
(100.208 -0.663545 -0.696394)
(100.221 -0.662553 -0.700088)
(100.006 0.00769075 0.000472781)
(100.027 0.0158854 0.000653258)
(100.067 0.0253495 2.10981e-05)
(100.129 0.0368525 -0.00178014)
(100.218 0.0511924 -0.0057972)
(100.342 0.0690352 -0.0129527)
(100.511 0.0903765 -0.0249201)
(100.736 0.113778 -0.0439855)
(101.023 0.134127 -0.0732148)
(101.367 0.139333 -0.115428)
(101.735 0.109868 -0.172905)
(102.053 0.0254058 -0.24543)
(102.218 -0.111201 -0.32846)
(102.156 -0.253646 -0.413163)
(101.889 -0.344623 -0.489902)
(101.533 -0.374296 -0.552578)
(101.202 -0.370453 -0.599834)
(100.94 -0.356696 -0.633942)
(100.742 -0.341874 -0.657996)
(100.592 -0.328017 -0.674238)
(100.477 -0.315728 -0.684383)
(100.391 -0.305381 -0.689858)
(100.328 -0.296418 -0.691969)
(100.282 -0.28822 -0.691663)
(100.25 -0.28042 -0.689801)
(100.227 -0.272892 -0.686926)
(100.212 -0.265581 -0.683475)
(100.202 -0.258509 -0.679839)
(100.195 -0.251756 -0.676335)
(100.192 -0.245425 -0.673202)
(100.19 -0.23959 -0.670604)
(100.19 -0.234297 -0.668646)
(100.19 -0.22956 -0.667369)
(100.19 -0.225357 -0.666741)
(100.191 -0.221607 -0.667)
(100.192 -0.218257 -0.66797)
(100.194 -0.215238 -0.6696)
(100.197 -0.212493 -0.671931)
(100.202 -0.21008 -0.675054)
(100.209 -0.208477 -0.679126)
(99.9937 0.00571159 0.011292)
(99.9725 0.011576 0.0235986)
(99.9332 0.017721 0.0381986)
(99.8749 0.024146 0.056557)
(99.7967 0.0305867 0.0803085)
(99.6964 0.0363127 0.111414)
(99.5737 0.0397736 0.152002)
(99.4309 0.0381969 0.20445)
(99.2764 0.0271879 0.270922)
(99.1282 0.000853928 0.352409)
(99.0165 -0.0462768 0.447806)
(98.9786 -0.112318 0.552662)
(99.0387 -0.180207 0.659125)
(99.1887 -0.231602 0.758844)
(99.3891 -0.256918 0.845265)
(99.5953 -0.264924 0.916938)
(99.7821 -0.263677 0.974986)
(99.9418 -0.257791 1.02124)
(100.074 -0.250173 1.05724)
(100.182 -0.242834 1.08444)
(100.269 -0.236316 1.10428)
(100.339 -0.230456 1.11851)
(100.394 -0.225208 1.12884)
(100.437 -0.220972 1.13636)
(100.472 -0.217736 1.14167)
(100.499 -0.215194 1.14513)
(100.52 -0.213156 1.1471)
(100.536 -0.211532 1.14806)
(100.547 -0.210233 1.14849)
(100.555 -0.209193 1.1487)
(100.559 -0.208387 1.14894)
(100.561 -0.207832 1.14937)
(100.561 -0.207541 1.15011)
(100.56 -0.207532 1.15118)
(100.559 -0.20781 1.15248)
(100.558 -0.208394 1.15382)
(100.559 -0.209289 1.15497)
(100.561 -0.210479 1.15564)
(100.566 -0.211966 1.15545)
(100.578 -0.213844 1.15382)
(99.9939 0.0169787 0.0110498)
(99.9732 0.0344594 0.0231193)
(99.9346 0.0529212 0.0375088)
(99.877 0.0725056 0.0556789)
(99.7985 0.0926233 0.0793241)
(99.6959 0.111362 0.110558)
(99.5666 0.124395 0.151844)
(99.4103 0.123547 0.206039)
(99.2323 0.0951531 0.276005)
(99.0496 0.019762 0.363749)
(98.8996 -0.118988 0.468874)