/*--------------------------------*- C++ -*----------------------------------*\
| =========                 |                                                 |
| \\      /  F ield         | OpenFOAM: The Open Source CFD Toolbox           |
|  \\    /   O peration     | Version:  2306                                  |
|   \\  /    A nd           | Website:  www.openfoam.com                      |
|    \\/     M anipulation  |                                                 |
\*---------------------------------------------------------------------------*/
FoamFile
{
    version     2.0;
    format      ascii;
    arch        "LSB;label=32;scalar=64";
    class       volVectorField;
    location    "0.7";
    object      Force;
}
// * * * * * * * * * * * * * * * * * * * * * * * * * * * * * * * * * * * * * //

dimensions      [1 1 -2 0 0 0 0];

internalField   uniform (0 0 0);

boundaryField
{
    walls
    {
        type            calculated;
        value           uniform (0 0 0);
    }
    inlet
    {
        type            calculated;
        value           uniform (0 0 0);
    }
    outlet
    {
        type            calculated;
        value           uniform (0 0 0);
    }
    NASA
    {
        type            calculated;
        value           nonuniform List<vector> 
14179
(
(-0.0145721 -0.134004 3.86121e-06)
(-0.0130364 -0.107757 2.52824e-06)
(-0.0666261 -0.538975 0.000383284)
(-0.0999572 -0.804289 0.00151423)
(-0.0662133 -0.536008 0.000197913)
(-0.10906 -0.877412 0.00170636)
(0.2098 0.910883 -0.000183584)
(0.0860484 0.431912 -3.13403e-05)
(0.667653 3.27348 0.00440486)
(0.0938662 0.471182 -3.43289e-05)
(-0.000543634 -0.00779221 2.28679e-06)
(-0.0177739 -0.145435 0.000298804)
(0.131136 0.655085 -0.00113618)
(-0.0353775 -0.32189 0.000781363)
(0.0621684 0.310335 -0.000517632)
(1.37834 0.929767 0.00281673)
(1.39016 0.921212 -0.000233186)
(0.0222388 0.12472 -2.63141e-05)
(0.163451 0.969878 -9.01097e-05)
(1.26712 0.839974 -0.00123944)
(-0.0171301 -0.239667 -1.2876e-05)
(-0.0213544 -0.198545 -0.000135615)
(-0.0195969 -0.272058 -0.000250885)
(-0.00871626 -0.0634714 1.5086e-06)
(-0.0132159 -0.109297 1.25333e-05)
(-0.00941603 -0.0685651 1.21904e-05)
(-0.0128619 -0.105983 0.000263573)
(-0.0150938 -0.108209 0.000277843)
(-0.0132059 -0.12068 0.000301667)
(-0.0154483 -0.212196 0.00353367)
(0.0467558 0.204179 2.93866e-05)
(0.0526163 0.248081 6.36442e-06)
(0.0565613 0.266687 -6.4246e-05)
(0.0461121 0.200863 -1.73386e-05)
(0.0713839 0.261738 3.11867e-06)
(0.0694 0.254629 -1.94279e-05)
(0.0359866 0.130491 2.11825e-06)
(0.0359257 0.130372 -1.14158e-05)
(-0.00213978 -0.0102006 0.000140038)
(-0.0129148 -0.0628666 0.000616467)
(0.171393 0.62606 -0.000750251)
(0.100388 0.362008 -6.78924e-05)
(0.0967742 0.485769 -3.4926e-05)
(-0.0060245 -0.0423395 2.55353e-06)
(-0.00548411 -0.0385416 -4.5667e-06)
(0.155947 0.783317 -5.28981e-05)
(-0.00981233 -0.0679108 0.000208295)
(0.0975122 0.486929 -0.00034131)
(0.0906874 0.45326 -0.000435504)
(0.107428 0.438906 -0.000324474)
(0.0842351 0.313128 -1.62206e-05)
(0.0838765 0.311785 -2.92475e-05)
(-0.0660769 1.61382 -0.000138857)
(1.38814 0.922866 -0.000716424)
(-0.066441 1.6332 9.14653e-05)
(-0.00278976 1.39433 -0.000128399)
(0.0674616 1.02018 4.12562e-05)
(0.0663197 0.999507 -0.000126137)
(-0.00285481 1.42506 -1.08438e-05)
(0.0990236 0.38902 -2.17933e-05)
(0.160284 0.950604 -7.47805e-05)
(0.00739949 0.0268987 5.44541e-05)
(-0.0228417 0.56649 -0.000464845)
(0.916135 0.625193 0.0767449)
(-0.000764474 0.532831 -0.000731264)
(0.0269206 0.409258 -0.000438522)
(0.127643 0.747301 0.00735345)
(-0.0146915 -0.146985 6.24222e-06)
(-0.014513 -0.133543 6.81388e-06)
(-0.0982692 -0.790823 0.00148488)
(-0.0115054 -0.0912324 2.81252e-06)
(-0.0130127 -0.107567 5.34389e-06)
(1.31446 0.870347 -0.00192803)
(1.26612 0.8386 -0.0016456)
(0.347147 2.05884 -0.00438348)
(0.261793 1.54714 -0.00289891)
(-0.110526 -0.890343 0.000252299)
(-0.0565995 -0.352361 0.000717836)
(-0.0557589 -0.349315 0.000711349)
(-0.0429026 -0.251737 0.000535594)
(0.157835 0.681143 -0.00138578)
(0.177444 0.767387 -0.00152119)
(0.762866 1.30977 -5.40034e-05)
(0.763223 1.30839 -0.000326238)
(0.0878814 0.441109 -2.77563e-05)
(0.0778937 0.374175 -1.71634e-05)
(-0.000334368 -0.00355286 -8.3424e-07)
(0.00139342 0.00696781 -8.75786e-08)
(0.00142573 0.00715216 -1.66006e-06)
(-0.000323689 -0.00347995 1.85584e-07)
(0.0964293 0.484151 -1.24931e-05)
(0.093466 0.482037 -2.36169e-05)
(-0.0200097 -0.163608 0.000348773)
(-0.0134837 -0.0966329 0.000224469)
(-0.0203434 -0.145319 0.000308304)
(-0.0123191 -0.0849618 0.000211302)
(-0.0181345 -0.124415 0.00022109)
(0.0860031 0.429241 -0.000882952)
(-0.0199647 -0.181722 0.000370878)
(-0.0244936 -0.337018 0.000945572)
(-0.0207023 -0.291026 1.09819e-05)
(0.0806799 0.403045 -0.00080017)
(1.37553 0.923774 -0.00269375)
(0.0998163 0.588522 -3.8179e-05)
(0.107994 0.603989 -1.59144e-05)
(0.109654 0.613129 -3.81929e-05)
(0.18188 1.26615 -8.70129e-05)
(0.103953 0.616623 -3.78327e-05)
(0.161591 0.958664 -5.57995e-05)
(0.0283138 0.0267802 1.68775e-05)
(0.326841 -0.120435 0.00328022)
(0.344349 -0.136514 0.00162162)
(0.0252149 0.0242957 -6.63811e-05)
(-0.00700717 -0.0299994 0.000130149)
(0.0210194 0.0774812 -9.82035e-05)
(0.00186158 0.00623838 5.68111e-05)
(0.0210688 0.0847544 -1.40088e-05)
(-0.00973551 -0.043436 0.000103764)
(-0.00211826 -0.0116901 0.000102797)
(0.0039211 0.0162813 1.72414e-05)
(-0.0182728 -0.088369 0.000179188)
(-0.00110591 0.730014 -0.00127359)
(0.0406783 0.608129 -0.00112335)
(-0.00160939 0.978472 -0.00175876)
(0.0317038 0.480434 -0.00120705)
(-0.0346568 0.865211 -0.00171384)
(1.09457 0.736379 -0.00140936)
(-0.0469616 1.16007 -0.00206101)
(0.109923 0.650683 -0.0022278)
(0.15764 0.61743 -0.00144292)
(0.118312 0.462768 -0.000836276)
(0.109334 0.399017 -0.000698828)
(0.154905 0.566041 -0.00100659)
(0.0637864 0.230193 -0.000400816)
(0.0871433 0.315019 -0.000628486)
(-0.0132413 -0.149174 -2.02617e-06)
(-0.0170156 -0.237746 8.23193e-06)
(-0.010554 -0.0812872 2.67737e-06)
(-0.00856565 -0.0623776 2.329e-06)
(0.000396874 0.000702955 0.529196)
(-0.0129105 -0.101624 0.00025745)
(0.000369523 0.000672809 0.503172)
(-0.0143597 -0.109455 0.000285251)
(0.000663471 0.000909578 0.572909)
(-0.0129236 -0.129097 0.000389179)
(0.000894036 0.0013563 0.574212)
(-0.0120268 -0.138589 0.00119879)
(0.0524023 0.247063 -2.074e-05)
(0.0390791 0.177726 -5.92802e-06)
(0.0393902 0.179161 -1.50595e-05)
(0.0463358 0.201797 -1.14959e-05)
(0.0456085 0.200891 -8.16224e-06)
(0.0458456 0.201945 -1.52625e-05)
(0.071182 0.261035 1.30189e-06)
(0.0239659 0.119192 -1.01141e-05)
(0.0214228 0.108685 -9.00374e-06)
(0.0366689 0.13299 4.04321e-06)
(0.0311476 0.109519 1.17327e-06)
(-0.00652027 -0.029839 0.000223726)
(-0.00549954 -0.0261927 0.000251323)
(0.00031 0.000534817 0.321019)
(0.00031413 0.000505128 0.31441)
(0.000305917 0.000492574 0.310012)
(0.000295295 0.000510891 0.357234)
(0.0951135 0.324175 0.000187957)
(0.161979 0.566501 0.00367062)
(-3.08257e-05 0.000578765 0.338171)
(0.000240239 0.000122988 0.307225)
(0.000120583 0.000191146 0.108508)
(0.0829749 0.291348 -2.89891e-05)
(0.285178 0.662485 -1.07612e-07)
(0.167235 0.589569 6.26286e-05)
(0.165541 0.583635 -2.33694e-05)
(0.0774927 0.361832 -1.38133e-05)
(0.0803648 0.375362 -2.82835e-05)
(0.121109 0.578393 -2.15901e-05)
(0.0857416 0.381827 -2.99933e-05)
(0.0854555 0.387785 -1.27412e-05)
(0.0878307 0.398581 -3.18781e-05)
(0.0845318 0.376469 -7.55914e-06)
(-0.00483091 -0.033963 3.95529e-07)
(-0.00595169 -0.041831 4.39546e-07)
(0.15653 0.829156 -2.36245e-05)
(0.263433 0.454377 0.010885)
(0.000735445 0.00292305 0.8581)
(0.000347236 0.0013831 0.410239)
(0.0480851 0.139881 5.58939e-05)
(-0.0118282 -0.0738013 0.000273716)
(-0.0118227 -0.0746522 0.0004177)
(0.000756003 0.00146653 0.672662)
(0.000243903 0.000154289 0.310017)
(0.0965345 0.49564 0.000637155)
(0.000400992 9.36905e-05 0.373505)
(0.140394 0.738129 0.00487715)
(0.000443091 0.000687062 0.345792)
(0.000298839 0.000519931 0.327343)
(-0.000440877 0.000196665 0.349907)
(6.88849e-05 0.00029009 0.112608)
(0.0808688 0.386459 -0.000398836)
(0.103597 0.481426 0.000547567)
(0.000387768 0.000125328 0.205925)
(9.45482e-05 0.000391245 0.108038)
(0.170487 0.716671 0.00140687)
(0.084257 0.313201 -1.67233e-05)
(0.0802382 0.307152 -2.09255e-05)
(0.0956974 0.390111 -2.80558e-05)
(0.0671561 0.270476 -7.72008e-06)
(-0.897259 2.86855 -0.0220238)
(-0.0669892 1.64152 -7.03801e-05)
(-0.200243 1.87171 0.000810601)
(0.0663926 0.999764 -6.0886e-05)
(0.0521775 1.11443 -3.09367e-05)
(-0.00286525 1.43615 -4.97446e-05)
(0.0333762 1.25231 -2.38813e-05)
(0.10415 1.14294 -2.41197e-05)
(0.133274 1.72073 -6.79955e-05)
(0.129475 1.66998 -5.20334e-05)
(0.103001 1.13108 -5.66294e-05)
(0.117812 1.20325 -4.28909e-05)
(0.122718 1.14196 2.85306e-06)
(0.124694 1.16034 -7.52496e-05)
(0.115042 1.17498 3.54708e-06)
(0.0660681 0.273791 -1.35062e-05)
(0.0595888 0.236464 -9.71123e-06)
(0.0968712 0.380635 -5.49669e-06)
(0.111547 0.755589 -7.2508e-05)
(0.111348 0.701358 -4.28779e-05)
(-0.000522058 2.42588e-05 0.562443)
(0.000660965 0.00225618 0.886775)
(0.00103699 0.00323968 0.000135021)
(0.000140803 0.00266928 0.733969)
(0.00200451 0.00680083 0.000128806)
(0.000304524 0.00987639 0.27304)
(-0.0603821 0.579162 -0.00104039)
(0.00720794 -0.00310362 1.74218)
(0.000270776 0.000460848 0.302893)
(0.0141055 0.516584 -0.000765827)
(0.000660662 3.32047e-05 0.244114)
(0.0231596 0.485269 -0.00058793)
(0.0612611 0.527327 -0.000763799)
(0.0610267 0.517793 -0.000724029)
(0.000300873 0.000379914 0.243373)
(0.000326372 0.000414767 0.267669)
(0.0574061 0.529908 -0.000664899)
(0.0521488 0.526387 -0.000374216)
(0.0471509 0.516445 0.000946335)
(1.98933e-05 -0.000683806 0.2221)
(-0.0190842 -0.104797 0.00115698)
(1.71453e-05 0.000654479 0.499004)
(0.0918737 0.511064 -0.000329835)
(0.000304423 0.00050153 0.319006)
(0.000307627 0.000505222 0.320573)
(0.478327 -0.190535 -0.00387531)
(0.229025 0.216571 0.00227268)
(0.000175787 9.60697e-05 0.0815478)
(-0.0524992 -0.516608 0.000633584)
(-0.0687767 -0.555849 0.000687731)
(-0.0547053 -0.537823 0.000841753)
(-0.0690443 -0.557975 0.000704804)
(-0.073643 -0.594496 0.000938192)
(-0.0580901 -0.570588 0.00100409)
(-0.0814915 -0.656997 0.00116574)
(0.180228 0.780264 -0.00155344)
(0.451122 2.20958 -0.00420027)
(0.183696 0.795701 -0.00157642)
(0.43042 2.10761 -0.0040277)
(-0.0662804 -0.536434 0.000223619)
(-0.0421175 -0.262775 0.000514227)
(-0.104299 -0.838919 0.00159164)
(-0.0479255 -0.298557 0.000588059)
(1.38783 0.919662 -0.000474522)
(1.38931 0.920628 -0.000231867)
(0.219349 0.952536 -0.000228582)
(0.625568 3.06983 -0.00123471)
(0.605658 2.97178 -0.000659139)
(0.207928 0.902814 -0.000347976)
(0.406005 2.40736 -0.000554708)
(0.453866 2.69096 -0.00113013)
(-0.00103285 -0.00969428 4.80202e-06)
(-0.000610075 -0.00769742 2.46825e-06)
(0.0221828 0.125499 -4.86246e-05)
(0.0225739 0.127199 -3.22829e-05)
(0.047732 0.207095 -0.000276743)
(0.034877 0.158337 -0.000209551)
(0.0577916 0.251531 -0.000376047)
(0.0267312 0.12042 -0.000124888)
(-0.108241 -0.871416 0.00170232)
(-0.0690369 -0.50192 0.00098021)
(0.0159154 0.0743346 -1.85524e-05)
(-0.0116323 -0.0643624 0.000184457)
(0.0643572 0.234726 -0.000480178)
(0.0724005 0.264029 -0.000516473)
(0.0350146 0.126248 -0.000260136)
(0.0405003 0.14602 -0.000286109)
(0.282636 1.27862 -0.000275173)
(0.177877 0.771679 -6.47046e-05)
(0.318196 1.5044 -0.000349817)
(0.142725 0.716289 -7.88239e-05)
(-0.0189231 -0.159283 0.000170074)
(-0.0432248 -0.320452 0.000311455)
(-0.00702328 -0.0513141 -1.437e-05)
(0.000318392 -0.00316486 1.46353e-06)
(-0.0186271 -0.127646 2.63379e-05)
(-0.024738 -0.172975 7.811e-05)
(0.0964687 0.394441 0.000153189)
(0.0835212 0.310485 -6.4987e-05)
(0.0837127 0.311184 -4.06317e-05)
(0.107857 0.442492 -0.000670313)
(0.164606 0.723014 -0.000167133)
(0.141257 0.65096 -7.65634e-06)
(0.171991 0.756021 -0.000153439)
(0.180786 0.84309 -1.23003e-05)
(-0.00273238 1.33624 -0.000121094)
(0.0637111 0.962292 -0.000211702)
(-0.00231759 1.09371 -0.000231593)
(0.0663109 1.00129 -9.21903e-05)
(-0.0642136 1.56929 -0.000125099)
(1.38912 0.921825 -0.000376764)
(-0.056899 1.39098 -0.000272058)
(0.497142 4.26319 -0.00155332)
(0.0966484 0.379771 -4.94698e-05)
(0.0868188 0.341061 -0.000118567)
(0.0713145 0.261314 -3.57443e-05)
(0.0681518 0.24994 -3.54064e-05)
(0.0566077 0.296722 -9.55534e-05)
(0.18311 0.903819 -0.00105897)
(0.0214631 0.119507 -6.0812e-05)
(0.0469972 0.252164 -5.22173e-05)
(0.767788 4.80447 0.00262294)
(0.365495 2.44204 0.000632912)
(0.0355763 0.128876 -8.71813e-06)
(0.0349925 0.126925 -1.94544e-05)
(1.24864 0.829638 -0.000190371)
(0.0901504 0.624405 -0.00121742)
(0.253537 0.237842 -0.00036295)
(0.497011 -0.206053 9.98819e-05)
(0.240291 0.226118 -0.000426325)
(0.517441 -0.21489 -0.000161546)
(0.0706535 0.259198 -7.80003e-06)
(0.0314803 0.110768 -1.0168e-05)
(0.0365999 0.132801 1.32784e-06)
(0.284958 0.661973 -1.53802e-05)
(0.274576 0.805986 -5.68843e-05)
(0.000603261 0.00170238 0.724218)
(0.000229159 0.000717593 0.361127)
(0.000397118 9.97886e-05 0.382987)
(-0.201279 1.86598 -0.000171099)
(-0.0669906 1.63809 -6.54701e-05)
(1.38381 0.923367 -0.0014237)
(0.0222079 0.0209732 1.07214e-05)
(0.341693 -0.140429 0.000125995)
(0.341429 -0.138805 0.000547433)
(0.0190305 0.0179299 1.47462e-06)
(0.000339325 0.000526446 0.54086)
(0.000276225 0.000258205 0.378636)
(0.000269086 0.000420786 0.340141)
(0.000455505 0.000702872 0.36368)
(-0.0890561 -0.717331 0.00132011)
(1.35032 0.894171 -0.00198985)
(1.33568 0.88445 -0.00196582)
(1.31072 0.867883 -0.00192358)
(1.33436 0.883572 -0.00196397)
(0.399992 1.95753 -0.00375583)
(0.176938 0.7654 -0.00152417)
(0.178896 0.774365 -0.00154229)
(0.422589 2.06909 -0.00396266)
(0.271278 1.60348 -0.00303729)
(0.290251 1.71595 -0.00321182)
(-0.0243658 -0.144067 0.000296826)
(-0.0312357 -0.183823 0.00037785)
(-0.0554443 -0.345024 0.000692503)
(-0.049981 -0.311222 0.00061594)
(-0.0409912 -0.240441 0.000502406)
(-0.0337994 -0.198661 0.000409662)
(0.253822 2.16051 -0.0039829)
(0.240723 2.04836 -0.00388754)
(0.0242239 0.0894058 -0.000124533)
(0.0226533 0.0914754 -0.000152582)
(0.0341021 0.138622 -1.17896e-05)
(0.0322231 0.119171 -0.000191876)
(0.00126852 0.00438347 6.31728e-05)
(0.0250409 0.106868 -4.0671e-05)
(0.0342866 0.14792 -0.000155614)
(0.0197946 0.0877131 -2.11005e-05)
(0.04016 0.148709 -0.000255679)
(0.0441 0.179806 -5.89551e-05)
(0.0344851 0.12759 -0.000210512)
(0.0425559 0.635923 -0.00116151)
(-0.00169629 1.02179 -0.00183617)
(-0.00189428 1.12658 -0.00202215)
(0.0468956 0.701028 -0.00128476)
(-0.0543641 1.34172 -0.0023904)
(1.30122 0.861555 -0.00190008)
(-0.0568583 1.40292 -0.00250213)
(-0.0487959 1.20508 -0.00214468)
(-0.0531576 1.31214 -0.00233743)
(1.2978 0.859281 -0.00189573)
(-0.00195014 1.15509 -0.00207309)
(0.0512288 0.766923 -0.00139804)
(-0.00206053 1.21151 -0.00217605)
(0.0482185 0.721292 -0.00129324)
(0.227343 1.34346 -0.00246018)
(0.412071 2.56571 -0.00687918)
(0.238223 1.58729 -0.00299585)
(0.248014 1.46515 -0.00282419)
(0.406579 2.53648 -0.00472791)
(0.378761 2.36196 -0.0045084)
(0.196262 1.30568 -0.00340956)
(-0.0809422 -0.59447 0.000761763)
(-0.101425 -0.81689 0.00160285)
(-0.0664603 -0.441393 0.000876918)
(-0.0567773 -0.353937 0.000742684)
(-0.0799214 -0.536261 0.000974944)
(-0.0531137 -0.331955 0.000717544)
(-0.0245276 -0.136496 0.000322052)
(-0.044769 -0.263097 0.000586604)
(0.00264606 0.00666983 0.000214785)
(-0.0474383 -0.280088 0.000609236)
(0.232649 1.04573 -0.00215073)
(0.180855 0.781684 -0.00152645)
(0.239558 1.12922 -0.00218846)
(0.178902 0.773494 -0.00152087)
(0.226939 1.02344 -0.0020027)
(0.242706 1.14291 -0.00257126)
(0.36975 1.80758 -0.00360553)
(0.106245 0.415491 -0.000764629)
(0.0901711 0.352551 -0.000681178)
(0.0962513 0.351171 -0.000633542)
(0.0761358 0.277657 -0.000533151)
(0.0876055 0.342551 -0.000675587)
(0.081635 0.319273 -0.000645712)
(0.0560237 0.202115 -0.000361684)
(0.0430636 0.155267 -0.000298025)
(0.120635 0.279665 -0.000469937)
(0.102027 0.236416 -0.00036159)
(-0.020652 -0.156585 0.0003417)
(-0.0181846 -0.130111 0.000291294)
(0.0815466 0.416965 -0.00109663)
(0.0862228 0.430528 -0.000807536)
(0.124548 0.65771 -0.00188423)
(-0.0191327 -0.189205 0.000319166)
(-0.0197458 -0.180132 0.000378572)
(-0.0170502 -0.187756 7.35074e-05)
(-0.0210133 -0.291708 0.000530895)
(0.0774815 0.370987 -0.00085171)
(0.0820871 0.409927 -0.00075764)
(-0.00465217 -0.0195564 8.72149e-05)
(0.00530266 0.0202942 7.37508e-05)
(-0.00134795 -0.00595107 7.82989e-05)
(0.0120387 0.0440674 -1.10703e-05)
(0.0175626 0.645955 -0.00114953)
(-0.00132869 0.843726 -0.00153062)
(0.0267815 0.56557 -0.0010815)
(0.0359906 0.539209 -0.00107075)
(-0.104686 0.994992 -0.00319365)
(-0.0409664 1.01475 -0.00186658)
(1.21258 0.809893 0.00132259)
(-0.454009 1.47741 -0.00230618)
(-0.0448311 1.10837 -0.00198908)
(-0.139923 1.30174 -0.00226)
(-0.0120873 -0.0631591 0.000181435)
(-0.00898153 -0.046196 0.000143087)
(-0.0107673 -0.0551397 0.000165717)
(-0.0102858 -0.0539445 0.000159609)
(-0.0249195 -0.136819 0.000193537)
(0.000704413 0.00096788 0.385571)
(0.058456 0.393475 -0.000754697)
(0.0921199 0.638169 -0.00133709)
(0.0604822 0.406836 -0.00084357)
(0.127335 0.464867 -0.000795579)
(0.155127 0.56662 -0.000980479)
(0.0735705 0.26559 -0.000450641)
(0.0625768 0.218977 -0.000380223)
(0.0822943 0.288518 -0.000682497)
(0.0900993 0.325466 -0.000573962)
(0.450903 -0.188405 -0.0026964)
(0.216721 0.199043 0.000556635)
(0.264693 0.246229 -0.000175017)
(0.523116 -0.218212 -0.00099038)
(0.22967 0.995925 -0.00187952)
(0.578224 2.83448 -0.00517077)
(0.236802 1.02694 -0.00189018)
(0.561188 2.75081 -0.00508946)
(-0.0665078 -0.53811 0.000317089)
(-0.0014432 -0.012178 1.04001e-05)
(-0.00127527 -0.011144 7.87966e-06)
(0.238872 1.03687 -0.000566263)
(0.661506 3.24571 -0.00238343)
(0.228717 0.992956 -0.000727364)
(-0.0608487 -0.442594 0.000838498)
(0.177093 0.77877 -0.000279476)
(0.144018 0.664721 -0.000270529)
(0.177416 0.78022 -0.000321949)
(0.143842 0.663851 -0.000239559)
(0.0651425 0.238815 -0.000119101)
(0.0677052 0.248265 -0.000112163)
(-0.0334907 -0.245743 9.31227e-05)
(0.162849 0.806101 -0.000324742)
(0.0639379 0.336291 -0.000134044)
(0.0335216 0.121548 -6.31004e-05)
(0.0382706 0.138804 -6.67822e-05)
(1.39006 0.921255 -0.00022718)
(0.03248 0.0305395 -4.75212e-06)
(0.357895 -0.148514 -2.12859e-06)
(0.0328564 0.0308881 -5.75542e-06)
(0.355404 -0.147417 -6.5788e-06)
(-0.0204615 -0.129357 0.000241966)
(-0.023047 -0.145286 0.000274969)
(-0.0400167 -0.249832 0.00048792)
(-0.0940643 -0.757278 0.00141043)
(-0.0349289 -0.218488 0.0004238)
(0.185587 0.804059 -0.0015915)
(0.196864 0.853651 -0.00166999)
(0.100845 0.441465 -0.00077427)
(0.0756495 0.34733 -0.000606078)
(0.104437 0.457305 -0.000805812)
(0.072251 0.331588 -0.000573995)
(0.0418629 0.190815 -0.000283282)
(0.0663713 0.28941 -0.000457002)
(0.0732639 0.319823 -0.000522571)
(0.0477304 0.218039 -0.000343028)
(0.0582929 0.213284 -0.000467295)
(0.0566721 0.207216 -0.000453461)
(0.0625514 0.228166 -0.000472216)
(0.0586305 0.21396 -0.000454466)
(0.0135249 0.0690732 -9.85697e-05)
(0.0669834 0.328666 -0.000555109)
(-0.0684725 -0.497684 0.00096563)
(0.0234653 0.112137 -0.000107969)
(-0.00783779 -0.0440969 0.000135802)
(0.0305669 0.147575 -0.000186715)
(0.0316167 0.114409 -0.000256555)
(0.0302417 0.109349 -0.000245025)
(0.0337854 0.121828 -0.00025455)
(0.0311574 0.112403 -0.00024255)
(1.31336 0.869605 -0.00192355)
(1.28005 0.847559 -0.00179735)
(0.131187 0.123591 -0.000268588)
(0.361101 -0.149911 0.000177519)
(0.371272 -0.154133 0.000184219)
(0.11889 0.111994 -0.000247226)
(0.475018 -0.196961 0.000183574)
(0.223738 0.210747 -0.000423169)
(0.209433 0.19734 -0.00040324)
(0.455212 -0.188854 0.00019102)
(6.62293e-05 -0.0140272 1.02326e-05)
(0.00011999 -0.0100128 1.09971e-05)
(-0.0519353 -0.511263 0.000522914)
(-9.51844e-05 -0.0258542 3.24105e-05)
(-4.18107e-05 -0.0219837 2.31197e-05)
(-0.0675436 -0.546126 0.000564313)
(-0.0534352 -0.525562 0.000754465)
(-5.06783e-05 -0.022471 3.8443e-05)
(-1.83919e-05 -0.0201304 3.10248e-05)
(-0.0705755 -0.570105 0.000814115)
(-0.0709529 -0.573105 0.000829702)
(2.24825e-05 -0.0169317 3.5206e-05)
(-0.0569034 -0.559104 0.000944476)
(-0.000188367 -0.0325373 5.84801e-05)
(-0.0782821 -0.631433 0.00107532)
(1.37159 0.908358 -0.00197088)
(1.3687 0.906427 -0.00198587)
(1.36503 0.903973 -0.00199752)
(1.37042 0.907556 -0.00199063)
(0.225504 0.977929 -0.00186417)
(0.527319 2.58496 -0.0048319)
(0.551393 2.70285 -0.00501274)
(0.18924 0.820868 -0.0015777)
(0.18104 0.783914 -0.00155778)
(0.238397 1.07609 -0.00210223)
(0.269321 1.27088 -0.00243844)
(0.444584 2.17738 -0.00414562)
(0.182491 0.790337 -0.00156776)
(0.245682 1.10939 -0.00215586)
(0.258656 1.22019 -0.0023538)
(0.43703 2.14018 -0.00408905)
(1.38791 0.91966 -0.000899617)
(1.386 0.918427 -0.000726437)
(1.38681 0.918981 -0.000508601)
(1.38503 0.917792 -0.0006989)
(0.459072 2.72149 -0.00129824)
(0.429594 2.54566 -0.0015034)
(-0.00108963 -0.0100118 5.38213e-06)
(-0.0664565 -0.537727 0.000293387)
(-0.0012304 -0.0108663 7.26015e-06)
(0.0218014 0.123301 -8.91988e-05)
(0.0219887 0.124396 -7.54237e-05)
(0.0221391 0.125274 -5.41703e-05)
(0.0220303 0.124643 -7.02383e-05)
(0.210916 0.915618 -0.000378694)
(0.230495 1.00053 -0.00050566)
(0.617731 3.03046 -0.00164433)
(-0.0551546 -0.366631 0.000703335)
(-0.0439555 -0.274099 0.000537273)
(-0.0644507 -0.468568 0.000894704)
(-0.0460186 -0.286808 0.000563574)
(-0.0599367 -0.398107 0.000769931)
(0.513116 4.39264 -0.00154343)
(0.537714 4.60235 -0.001278)
(0.0834425 0.31019 -7.44984e-05)
(0.107892 0.442664 0.000459658)
(0.108004 0.443138 -0.000712996)
(0.0833488 0.309847 -9.9761e-05)
(0.140213 0.646453 -0.000205667)
(0.175471 0.771491 -0.000197209)
(0.176705 0.777016 -0.000240908)
(0.14332 0.661284 -0.00020879)
(0.107989 0.443072 0.00041146)
(0.0832875 0.309623 -0.000133005)
(0.108011 0.443157 -0.000760404)
(0.0833096 0.309703 -0.000109026)
(0.0626913 0.94756 -0.000207393)
(-0.00226512 1.06299 -0.000241553)
(-0.00229944 1.08659 -0.000338)
(0.058827 0.888995 -0.000293007)
(-0.0561335 1.37179 -0.000451008)
(1.38861 0.92018 -0.000380193)
(-0.0565893 1.38313 -0.000566807)
(-0.0556985 1.36151 -0.000298854)
(-0.0561051 1.3712 -0.000413762)
(1.38929 0.920623 -0.000338184)
(-0.00228764 1.07814 -0.00035495)
(0.0528619 0.799132 -0.000338821)
(-0.00233815 1.10484 -0.000458585)
(0.0570046 0.861804 -0.000311024)
(0.299175 1.35394 -0.000286548)
(0.225631 0.979838 -0.000288477)
(0.629249 3.08822 -0.00102841)
(0.364381 1.72323 -0.000681917)
(0.332386 1.57207 -0.000293993)
(0.627859 3.08136 -0.000873284)
(0.219691 0.954017 -0.000340204)
(0.310266 1.40395 -0.000542357)
(0.079249 0.311364 -0.000115298)
(0.0693964 0.272688 -0.000107674)
(0.0734439 0.269215 -3.86276e-05)
(0.0655859 0.240538 -9.92963e-05)
(0.0699965 0.275024 -0.000113831)
(0.69018 4.31834 -0.00131999)
(0.428606 2.54139 -0.000727666)
(0.70682 4.42396 -0.00126014)
(0.456384 3.0527 -0.00107843)
(0.440945 2.94871 -0.000823146)
(0.441032 2.61528 -0.000881587)
(-0.0316039 -0.232602 6.18271e-05)
(-0.0199834 -0.135347 5.2719e-05)
(-0.000926569 -0.00912094 4.03176e-06)
(-0.0192272 -0.130983 3.61253e-05)
(-0.000886864 -0.00905863 3.6477e-06)
(0.0631289 0.331501 -8.20714e-05)
(0.160291 0.792581 -0.000197224)
(0.162737 0.805223 -0.000247531)
(0.0481997 0.259737 -0.000102422)
(0.0222551 0.125845 -4.30776e-05)
(0.0481455 0.258926 -6.65687e-05)
(0.0222851 0.125852 -3.69318e-05)
(0.039593 0.143491 -8.80594e-06)
(0.0363765 0.131966 -5.80466e-05)
(0.0665747 0.242797 -0.000490598)
(0.0690651 0.251863 -0.000501521)
(0.0324487 0.113433 -0.000234665)
(0.0365243 0.131685 -0.000267355)
(0.0384368 0.13437 -0.000262441)
(0.0382358 0.13785 -0.000275155)
(0.273473 0.802829 -0.000164096)
(0.274224 0.804962 -0.000110442)
(0.284426 0.66081 -0.000106688)
(0.284672 0.661374 -9.65858e-05)
(-0.197934 1.83471 -0.000180317)
(-0.0617392 1.50988 -0.000217593)
(1.39001 0.921603 -0.000264902)
(-0.820333 2.66818 -0.000419938)
(-0.0591401 1.44604 -0.000248554)
(-0.185172 1.71548 -0.000313202)
(0.067741 0.248156 -3.29691e-05)
(0.0672885 0.246624 -3.49648e-05)
(0.0330149 0.11958 -1.48531e-05)
(0.029779 0.104587 -2.285e-06)
(0.0306051 0.107629 -1.72679e-05)
(0.0337509 0.12233 -1.94216e-05)
(0.405299 2.3991 -0.00440795)
(0.385279 2.28041 -0.00423916)
(0.000318463 -0.00119146 1.5426e-05)
(-0.00260419 -0.0181115 4.77933e-05)
(-0.0274752 -0.17257 0.000330864)
(-0.0241975 -0.152374 0.000289156)
(-0.00761895 -0.0471398 0.000104293)
(-0.00392298 -0.0257454 6.22515e-05)
(1.34901 0.893313 -0.00198777)
(1.35903 0.899968 -0.00199853)
(1.36603 0.904627 -0.00200003)
(1.35973 0.900434 -0.00199861)
(-0.0218949 -0.129766 0.000268235)
(-0.0160809 -0.0961168 0.000200677)
(0.351 2.07653 -0.0038555)
(0.37582 2.22418 -0.0041395)
(-0.0925707 -0.745364 0.00138424)
(-0.0289447 -0.181624 0.000348961)
(-0.0331411 -0.207474 0.000401629)
(-0.009304 -0.0568936 0.000123144)
(-0.0140127 -0.0841468 0.000177096)
(0.19841 0.860391 -0.00166404)
(0.518039 2.5394 -0.0047762)
(0.190845 0.827741 -0.00159543)
(0.482388 2.36392 -0.00448887)
(0.283449 2.4136 -0.00446529)
(0.291772 2.48488 -0.0046063)
(0.0646325 0.264256 -0.000127329)
(0.0523139 0.193947 -0.000348702)
(0.0551439 0.20448 -0.000369894)
(0.0606914 0.248046 -0.000750781)
(0.0958362 0.419378 -0.000729639)
(0.0636376 0.29171 -0.000494461)
(0.0913993 0.399815 -0.000688969)
(0.067723 0.310621 -0.000533223)
(0.0584687 0.216856 -0.000394433)
(0.0560892 0.207999 -0.000377103)
(0.0694492 0.284071 -0.000141634)
(-0.00238439 1.37345 -0.00246443)
(0.0575016 0.861365 -0.00156576)
(0.0588046 0.880992 -0.00159967)
(-0.0023297 1.34655 -0.00241721)
(-0.0640866 1.5801 -0.0028162)
(1.34633 0.891519 -0.00198266)
(-0.0648178 1.59792 -0.00284774)
(-0.0024035 1.3827 -0.00247986)
(0.0602647 0.903019 -0.00163758)
(-0.00243491 1.39591 -0.00250291)
(0.0592349 0.88748 -0.00161084)
(-0.0636533 1.56949 -0.00279836)
(1.34329 0.8895 -0.0019778)
(-0.062455 1.54014 -0.00274674)
(0.317549 2.70515 -0.00497127)
(0.311675 2.6549 -0.00488612)
(0.0419501 0.155374 -0.000269816)
(0.0462293 0.171301 -0.000302538)
(0.0541792 0.221262 -0.000661227)
(0.0511001 0.189429 -0.000339663)
(0.0588762 0.24058 -0.000109824)
(0.0476805 0.176701 -0.000313517)
(0.0799454 0.349295 -0.000585379)
(0.0582367 0.266706 -0.000444159)
(0.0851649 0.37232 -0.000633404)
(0.0535014 0.244776 -0.000398554)
(-0.0575249 1.4192 -0.00253203)
(-0.0597907 1.47485 -0.00262944)
(1.32174 0.875197 -0.00194135)
(0.0520681 0.779592 -0.0014214)
(-0.00209516 1.22741 -0.00220545)
(-0.00220124 1.2828 -0.00230271)
(0.0544016 0.814684 -0.00148328)
(-0.00223362 1.29915 -0.00233207)
(0.0569427 0.852926 -0.00155119)
(0.0552016 0.826721 -0.0015042)
(-0.00230485 1.335 -0.00239742)
(-0.0604614 1.4913 -0.00265895)
(1.32687 0.878597 -0.00194929)
(-0.0619737 1.52838 -0.00272677)
(0.0760016 0.297769 -0.000620894)
(0.076274 0.2987 -0.000622765)
(0.0561468 0.205109 -0.000446236)
(0.0563129 0.205856 -0.000450249)
(0.0761994 0.298726 -0.000621849)
(0.242629 1.14398 -0.00222049)
(0.407236 1.99334 -0.00385188)
(0.228183 1.02927 -0.00201806)
(0.176989 0.765796 -0.00153299)
(0.178022 0.770437 -0.00153849)
(0.235422 1.0625 -0.00207848)
(0.415501 2.03416 -0.00389745)
(0.254396 1.19997 -0.00231998)
(0.0777395 0.304199 -0.000628182)
(0.0773307 0.302648 -0.00062692)
(0.0763047 0.298772 -0.000622412)
(0.0562403 0.205404 -0.000445662)
(0.0578059 0.21099 -0.000451194)
(0.264255 1.7611 -0.00329131)
(0.421572 2.63046 -0.00493645)
(0.277552 1.64063 -0.00308479)
(0.284236 1.68028 -0.00315626)
(0.452377 2.82315 -0.00526611)
(0.442608 2.76213 -0.00516219)
(0.270964 1.80596 -0.00336051)
(-0.00199378 -0.0135742 5.58689e-05)
(-0.0264787 -0.156297 0.000321379)
(0.0505455 0.246963 -0.000391991)
(0.0053817 0.0259896 -1.22186e-05)
(-0.0289591 -0.17065 0.000350623)
(-0.0097398 -0.0556987 0.000140975)
(-0.0656561 -0.435891 0.000858151)
(-0.0536859 -0.334095 0.000666947)
(-0.0656305 -0.477068 0.000914821)
(-0.0518835 -0.322952 0.000640364)
(-0.0615561 -0.408774 0.000794151)
(0.463683 2.89391 -0.00538906)
(0.473068 2.95264 -0.00548811)
(0.294542 1.96364 -0.00362997)
(0.288544 1.92352 -0.00356127)
(-0.021658 -0.120673 0.000280307)
(-0.0385774 -0.22637 0.000468879)
(0.0438664 0.213759 -0.000324291)
(0.00205466 0.00838385 2.34536e-05)
(0.0375945 0.182563 -0.000261192)
(-0.0361596 -0.212336 0.000437684)
(-0.0127895 -0.0722871 0.000175051)
(0.0296045 0.106929 -0.000237901)
(0.0299201 0.108157 -0.000242215)
(0.029642 0.107036 -0.00023729)
(0.0306037 0.110429 -0.000240327)
(0.116368 0.340743 -0.000580103)
(0.142094 0.416291 -0.000743242)
(0.190218 0.441306 -0.000830253)
(0.184878 0.428905 -0.000804815)
(0.157486 0.365306 -0.000673822)
(0.165625 0.384212 -0.000716501)
(0.149063 0.436764 -0.000786826)
(-0.599418 1.95205 -0.00331905)
(1.30796 0.866021 -0.0019109)
(-0.0561294 1.38505 -0.00246902)
(-0.167832 1.56045 -0.00275141)
(-0.571823 1.86236 -0.00322681)
(-0.502119 1.63476 -0.00268467)
(-0.520198 1.69397 -0.00288565)
(-0.145132 1.35012 -0.00237651)
(-0.0503041 1.24211 -0.00220882)
(1.29047 0.854407 -0.00185963)
(-0.554598 1.8064 -0.0030767)
(0.0883276 0.322186 -0.000589431)
(0.0813915 0.296865 -0.000559836)
(0.144738 0.13637 -0.000291984)
(0.397961 -0.165214 0.000200982)
(0.383798 -0.159332 0.000192352)
(0.158787 0.149619 -0.000314283)
(0.0547879 0.191663 -0.000339855)
(0.0510629 0.184163 -0.000334638)
(0.0464862 0.167631 -0.000314984)
(0.0412135 0.144085 -0.000274861)
(0.190472 0.17949 -0.000369655)
(0.415222 -0.17237 0.000200652)
(0.433371 -0.179868 0.000201763)
(0.174828 0.164746 -0.000340181)
(0.651243 3.1949 -0.00250734)
(0.215712 0.936368 -0.000718613)
(0.245989 1.0675 -0.000854788)
(0.616693 3.02487 -0.00257241)
(0.235915 1.0236 -0.00139654)
(0.664013 3.25653 -0.00407403)
(0.230282 0.999298 -0.00126865)
(0.722031 3.54107 -0.00472041)
(0.246142 1.06761 -0.00180661)
(0.623252 3.05613 -0.00492547)
(0.24664 1.06998 -0.00170499)
(0.606592 2.97384 -0.00494391)
(-0.0665927 -0.538736 0.000361846)
(-0.0338054 -0.247854 0.000178796)
(-0.046503 -0.339147 0.000608504)
(-0.0594858 -0.432765 0.000817689)
(-0.0968846 -0.77978 0.00145972)
(-0.0522751 -0.514483 0.000588468)
(-0.00525374 -0.15925 0.000194468)
(-0.00524333 -0.159003 0.000176848)