/*--------------------------------*- C++ -*----------------------------------*\
| =========                 |                                                 |
| \\      /  F ield         | OpenFOAM: The Open Source CFD Toolbox           |
|  \\    /   O peration     | Version:  2306                                  |
|   \\  /    A nd           | Website:  www.openfoam.com                      |
|    \\/     M anipulation  |                                                 |
\*---------------------------------------------------------------------------*/
FoamFile
{
    version     2.0;
    format      ascii;
    arch        "LSB;label=32;scalar=64";
    class       volScalarField;
    location    "0.7";
    object      p;
}
// * * * * * * * * * * * * * * * * * * * * * * * * * * * * * * * * * * * * * //

dimensions      [0 2 -2 0 0 0 0];

internalField   nonuniform List<scalar> 
111542
(
59.5535
60.8789
64.0311
69.1849
76.4295
85.9895
98.0369
112.612
129.228
146.459
161.734
171.025
170.271
158.248
137.985
115.155
93.6801
75.0374
59.412
46.7276
36.6516
28.8805
23.0217
18.5608
15.1662
12.5645
10.4721
8.8495
7.64052
6.71271
5.97864
5.3785
4.92175
4.53579
4.16741
3.77363
3.3004
2.74261
2.00016
0.984816
58.5146
59.8013
62.9232
68.0185
75.2575
84.9687
97.5353
113.218
131.853
152.366
172.044
185.301
184.528
168.416
142.763
116.166
92.707
73.0278
56.9617
44.2247
34.3958
26.9629
21.3785
17.2485
14.1435
11.7381
9.85369
8.3998
7.28442
6.41144
5.71359
5.14806
4.68802
4.2916
3.91772
3.52761
3.07751
2.52238
1.79312
0.835914
56.4561
57.6773
60.66
65.5764
72.7061
82.5693
95.8879
113.478
136.003
163.297
192.003
213.469
213.435
187.961
151.864
118.863
91.6845
69.9404
52.9893
40.0942
30.5218
23.791
18.9363
15.3118
12.3508
9.95851
8.15831
6.84937
5.88619
5.16196
4.61127
4.18897
3.85772
3.58257
3.32768
3.05593
2.7234
2.27444
1.63738
0.738089
53.4283
54.5238
57.2151
61.7194
68.4263
78.0717
91.8136
111.36
139.122
178.343
213.505
256.179
261.572
220.371
168.052
127.839
95.1073
70.0257
51.5036
37.9415
23.9662
17.7127
15.2591
13.7337
11.638
9.49908
7.79253
6.50835
5.51226
4.72334
4.10144
3.61322
3.2267
2.90964
2.63223
2.36212
2.05522
1.65078
1.05858
0.16864
49.5392
50.4269
52.622
56.3562
62.0704
70.615
83.4417
102.981
133.267
178.184
255.299
341.431
364.529
255.582
170.527
122.797
84.1252
57.6763
40.081
28.7291
21.5378
6.42162
5.3128
5.69853
5.08777
4.33312
3.79812
3.40862
3.08682
2.81776
2.60013
2.42504
2.2824
2.15878
2.04302
1.92055
1.7618
1.51465
1.06466
0.127922
44.9811
45.5716
47.0432
49.5846
53.5712
59.7393
69.4215
85.0764
111.477
166.305
260.187
455.152
618.663
243.07
168.25
113.233
67.4368
41.4376
25.9484
16.6387
16.7315
16.0909
14.1096
8.70538
5.24352
3.57685
2.65281
1.9993
1.51871
1.18823
0.972581
0.834805
0.749009
0.697296
0.66702
0.647091
0.623474
0.585028
0.540123
0.617775
40.0442
40.2665
40.8261
41.811
43.4
45.9294
49.9813
56.5405
67.309
106.791
182.864
414.699
1948.43
-427.541
199.381
77.8193
32.1451
16.6882
8.20753
-1.82339
-6.13041
13.7612
13.7381
8.50801
5.28706
4.03721
3.4603
3.02382
2.67045
2.41127
2.22673
2.08915
1.98179
1.89367
1.81829
1.75023
1.67636
1.58906
1.48395
1.39961
35.0957
34.9216
34.489
33.7611
32.6646
31.0214
28.4224
23.9164
15.1152
17.3531
0.654882
-159.295
-995.08
-1041.26
-312.228
-100.794
-45.7241
-25.5786
-16.577
-10.4242
-3.87926
-7.82484
-5.92209
-4.33075
-3.51472
-2.6568
-1.79927
-1.0995
-0.552879
-0.106739
0.267931
0.582137
0.843463
1.05747
1.22746
1.3518
1.41458
1.3837
1.19147
0.712576
30.5396
29.995
28.6289
26.3014
22.7369
17.3719
9.17804
-3.74383
-25.0165
-48.3618
-121.931
-266.097
-475.394
-504.273
-319.372
-174.864
-100.45
-61.2746
-39.306
-25.3548
-15.3406
-8.61487
-4.72531
-1.89815
-0.148645
0.963316
1.76045
2.33148
2.71797
2.97078
3.13173
3.22654
3.26979
3.26907
3.22503
3.13123
2.9639
2.67447
2.16783
1.25449
26.7649
25.9077
23.7828
20.1778
14.705
6.63194
-5.25391
-22.9273
-49.6658
-91.0564
-148.949
-221.728
-287.047
-295.347
-238.191
-165.531
-110.488
-75.0403
-51.957
-35.915
-24.531
-16.9588
-11.9288
-8.30951
-5.70869
-3.84143
-2.43663
-1.34497
-0.49489
0.166853
0.685822
1.0949
1.41398
1.65335
1.81322
1.8876
1.85373
1.66901
1.27237
0.614562
24.0738
23.002
20.3536
15.8928
9.19013
-0.487442
-14.2506
-33.5957
-60.388
-96.4819
-141.823
-191.191
-229.947
-237.332
-207.295
-158.858
-114.685
-82.3059
-59.4587
-42.752
-30.311
-21.1929
-14.5081
-9.58692
-5.9718
-3.32957
-1.38666
0.0523093
1.11426
1.88913
2.44674
2.83923
3.10193
3.25509
3.29902
3.24528
3.07092
2.72914
2.14583
1.18603
22.6751
21.5038
18.5789
13.7153
6.40983
-3.97709
-18.47
-38.2189
-64.3852
-97.3249
-135.537
-173.625
-201.654
-208.082
-188.755
-153.146
-115.911
-85.5294
-62.83
-45.8163
-32.9294
-23.2831
-16.1915
-11.0164
-7.28011
-4.56631
-2.57885
-1.11028
-0.0186297
0.793703
1.39714
1.84219
2.16405
2.38747
2.45937
2.4559
2.33582
2.04846
1.54189
0.758128
58.9548
60.2261
63.2989
68.2797
75.275
84.5021
96.1666
110.268
126.326
143.012
157.827
166.84
166.054
154.388
134.748
112.576
91.7122
73.5301
58.2571
45.8246
35.9853
28.3756
22.5842
18.2045
14.8681
12.2753
10.2316
8.64942
7.44774
6.52813
5.81233
5.24706
4.79856
4.42053
4.06912
3.70324
3.27792
2.74449
2.02213
1.00831
57.9284
59.1763
62.1999
67.1246
74.1191
83.5047
95.6598
110.834
128.879
148.779
167.914
180.875
179.961
164.26
139.362
113.553
90.7334
71.522
55.8103
43.3575
33.7666
26.4718
20.9608
16.8945
13.8411
11.4645
9.60413
8.16968
7.06821
6.21083
5.53284
4.99048
4.54996
4.17403
3.82623
3.4687
3.05887
2.54235
1.84645
0.889981
55.9009
57.0871
59.9709
64.7205
71.6084
81.1411
94.0235
111.056
132.901
159.424
187.355
208.256
208.309
183.44
148.348
116.311
89.8167
68.5294
51.9203
39.3313
30.0988
23.4796
18.6003
14.9788
12.0634
9.72344
7.96908
6.7
5.77015
5.07261
4.54371
4.1396
3.82421
3.56442
3.32847
3.08185
2.78318
2.37358
1.76775
0.845142
52.9212
53.9844
56.5832
60.9294
67.4034
76.7221
90.0177
108.968
135.96
174.231
209.88
251.942
257.178
216.365
165.187
125.826
93.6131
68.8524
50.5721
37.241
23.5598
17.6214
14.9948
13.2919
11.1007
8.94486
7.27721
6.0575
5.13087
4.40793
3.84618
3.41109
3.07203
2.79888
2.56528
2.34306
2.09361
1.75495
1.22115
0.312091
49.0973
49.9562
52.0709
55.6658
61.1717
69.4187
81.8293
100.799
130.325
175.303
251.555
336.851
359.394
251.206
168.259
121.484
83.0655
56.7055
39.208
27.9453
20.4992
6.69778
5.63778
6.00471
5.26088
4.3849
3.7882
3.36623
3.01736
2.72265
2.48264
2.28923
2.13422
2.00604
1.8957
1.79309
1.67644
1.49591
1.12705
0.22655
44.6176
45.187
46.5966
49.0292
52.8533
58.7891
68.1469
83.3589
109.176
163.94
257.61
451.459
614.042
239.571
166.602
112.738
66.8626
40.9362
25.6046
16.358
13.2661
12.5618
11.2937
6.76262
3.81451
2.49889
1.86107
1.43142
1.11141
0.889534
0.745148
0.65284
0.597357
0.568661
0.562537
0.576303
0.608529
0.659988
0.74306
0.936442
39.7654
39.98
40.5016
41.4189
42.9104
45.3077
49.1881
55.5423
66.1042
105.476
181.377
412.048
1938.62
181.74
77.3573
31.0219
15.9702
7.90196
-2.29965
-9.77182
15.4025
14.461
8.66656
5.26834
3.89019
3.18745
2.64664
2.21291
1.89112
1.65752
1.48272
1.3507
1.25109
1.18043
1.13735
1.11934
1.12577
1.15609
1.21337
34.9024
34.7374
34.2931
33.5438
32.424
30.7633
28.1696
23.7326
15.1466
17.3739
0.898312
-158.144
-983.544
-1024.77
-306.35
-98.5774
-44.8078
-25.3967
-16.7041
-10.6106
-3.65162
-8.681
-6.95393
-5.37482
-4.33322
-3.25963
-2.26678
-1.48139
-0.875602
-0.389716
0.00998627
0.33987
0.612857
0.838278
1.025
1.17734
1.28764
1.32767
1.22296
0.788215
30.4412
29.9072
28.552
26.2479
22.7289
17.4487
9.41135
-3.22857
-24.0041
-47.3141
-119.613
-262.006
-468.733
-494.315
-313.477
-171.316
-98.3875
-60.1889
-38.806
-25.214
-15.4
-9.2801
-5.36305
-2.4394
-0.58328
0.589813
1.39843
1.9558
2.32028
2.54919
2.68774
2.76426
2.79531
2.79032
2.75258
2.67915
2.5506
2.32184
1.90068
1.10423
26.7395
25.8964
23.8101
20.265
14.8908
6.9798
-4.64592
-21.9055
-47.9909
-88.3795
-144.913
-216.053
-280.083
-287.856
-231.878
-161.168
-107.838
-73.5622
-51.2044
-35.6402
-24.6065
-17.3189
-12.3412
-8.70887
-6.10093
-4.22882
-2.81628
-1.71608
-0.85923
-0.193087
0.328913
0.740739
1.06371
1.30961
1.4819
1.57677
1.57498
1.43748
1.10781
0.543325
24.1053
23.0557
20.4565
16.077
9.5126
0.044446
-13.4032
-32.2852
-58.4116
-93.599
-137.8
-185.92
-223.749
-231.073
-201.827
-154.853
-112.075
-80.7375
-58.5795
-42.3371
-30.2265
-21.3397
-14.7713
-9.91111
-6.33366
-3.71292
-1.77997
-0.346291
0.710438
1.47917
2.0306
2.41785
2.67714
2.83058
2.88664
2.84845
2.69876
2.39771
1.88087
1.04073
22.7407
21.5816
18.727
13.9391
6.80649
-3.3545
-17.5094
-36.7885
-62.2785
-94.4051
-131.668
-168.817
-196.201
-202.653
-184.024
-149.433
-113.322
-83.9003
-61.8699
-45.3161
-32.7463
-23.3223
-16.3758
-11.301
-7.60601
-4.91278
-2.93758
-1.47547
-0.387165
0.423091
1.02502
1.46887
1.78851
2.00262
2.11036
2.12301
2.02153
1.76862
1.323
0.659632
57.825
59.0172
61.8964
66.5491
73.0775
81.6861
92.5698
105.717
120.681
136.238
150.032
158.375
157.575
146.567
128.08
107.209
87.5107
70.2498
55.6882
43.8059
34.3927
27.0715
21.4537
17.2049
13.9814
11.4821
9.52258
8.00144
6.83598
5.94323
5.25244
4.711
4.27847
3.91824
3.59381
3.26664
2.89368
2.42157
1.77921
0.873728
56.8264
57.9988
60.8268
65.4243
71.9496
80.7033
92.0388
106.189
123.022
141.604
159.519
171.489
170.64
155.811
132.373
108.098
86.5349
68.2668
53.2783
41.3972
32.2459
25.182
19.8079
15.8917
12.985
10.7139
8.91785
7.51782
6.43311
5.58621
4.91842
4.38762
3.95899
3.60015
3.27953
2.96289
2.61
2.16762
1.5667
0.733279
54.8569
55.9709
58.6628
63.0898
69.5073
78.3888
90.3955
106.285
126.7
151.556
177.809
197.649
197.483
173.862
140.86
110.767
85.6766
65.3642
49.4878
37.5044
28.8325
22.3093
17.395
13.8964
11.1823
8.99905
7.33134
6.10298
5.19073
4.50048
3.97553
3.57605
3.26825
3.02341
2.81388
2.61102
2.37803
2.06003
1.56898
0.766854
51.9671
52.9621
55.3807
59.4199
65.4368
74.1041
86.4893
104.189
129.505
165.623
200.871
241.316
246.173
206.726
158.08
120.785
89.856
65.9493
48.3041
35.4869
21.9035
16.1144
13.676
12.0807
9.92057
7.76015
6.0717
4.82668
3.87924
3.14563
2.58409
2.16046
1.84376
1.60589
1.42469
1.27891
1.13946
0.954512
0.625664
-0.0218772
48.2695
49.064
51.0205
54.343
59.4371
67.0848
78.6354
96.3828
124.214
168.169
241.879
324.831
346.323
240.739
162.403
117.807
80.1059
54.1327
36.9845
26.0047
18.473
2.39398
3.34157
4.94359
4.45912
3.52427
2.83094
2.31888
1.89187
1.53669
1.255
1.03873
0.880019
0.767726
0.698388
0.669814
0.677791
0.694413
0.617748
0.0844271
43.9156
44.4576
45.7457
47.964
51.4646
56.9291
65.6098
79.854
104.329
157.953
250.073
440.955
599.726
229.656
166.28
113.181
65.9494
39.2434
23.7473
14.4566
7.30235
4.59256
5.05164
1.90299
-0.672993
-1.92025
-2.4773
-2.79385
-2.99069
-3.08759
-3.10775
-3.08133
-3.01267
-2.91156
-2.7743
-2.58972
-2.33268
-1.95796
-1.36345
-0.234548
39.2404
39.4323
39.8786
40.6643
41.962
44.0895
47.6048
53.4994
63.5639
102.268
177.596
407.798
1916.6
192.233
86.4386
33.5987
15.5078
6.23764
-3.39203
-9.75876
13.5193
11.9522
5.7909
2.3215
0.951656
0.284063
-0.199379
-0.566266
-0.821649
-0.990959
-1.10183
-1.16854
-1.19146
-1.1664
-1.08108
-0.912742
-0.627907
-0.165171
0.568535
34.5531
34.3801
33.9123
33.1237
31.9569
30.2562
27.6654
23.359
15.2237
17.6274
2.33369
-151.822
-969.539
-1005.25
-293.585
-91.8775
-41.9217
-24.6022
-16.9146
-11.2718
-3.70403
-8.15675
-7.77037
-7.04885
-6.15102
-5.02189
-3.95267
-3.08341
-2.39268
-1.83111
-1.36604
-0.97851
-0.653296
-0.375395
-0.123789
0.116154
0.355511
0.584227
0.741025
0.597901
30.2522
29.7279
28.4026
26.1459
22.7154
17.6024
9.87801
-2.18164
-21.8933
-44.448
-113.539
-250.841
-451.044
-475.202
-299.214
-162.53
-93.6821
-57.9155
-37.8803
-25.066
-15.7331
-10.0689
-6.45618
-3.67773
-1.85301
-0.679033
0.146464
0.733002
1.13158
1.39398
1.56585
1.67658
1.74519
1.78385
1.80421
1.80996
1.79254
1.71837
1.50168
0.946329
26.6899
25.8771
23.854
20.4252
15.245
7.65253
-3.45424
-19.8713
-44.5978
-82.8278
-136.393
-203.981
-265.048
-272.543
-219.399
-152.681
-102.729
-70.7008
-49.7148
-35.0444
-24.66
-17.9014
-12.9454
-9.31203
-6.78231
-4.97963
-3.58901
-2.47782
-1.59579
-0.899542
-0.345167
0.0997934
0.457726
0.739944
0.956935
1.10916
1.18447
1.15117
0.954429
0.529875
24.1574
23.1449
20.6404
16.4248
10.1243
1.06442
-11.7597
-29.7101
-54.4838
-87.7997
-129.647
-175.263
-211.296
-218.487
-191.047
-146.906
-106.822
-77.4709
-56.6306
-41.2857
-29.82
-21.378
-15.0093
-10.2752
-6.81871
-4.29226
-2.41374
-1.00433
0.0454865
0.817608
1.37974
1.78343
2.06496
2.24687
2.34295
2.35559
2.27285
2.06269
1.66626
0.973372
22.848
21.7307
18.9842
14.3809
7.54799
-2.16363
-15.651
-33.9745
-58.1461
-88.5816
-123.876
-159.107
-185.197
-191.598
-174.326
-141.952
-108.114
-80.5121
-59.7578
-44.0888
-32.1504
-23.1678
-16.4936
-11.5741
-7.97651
-5.35534
-3.42912
-1.99264
-0.91244
-0.0988639
0.513782
0.973809
1.31431
1.55438
1.70306
1.7602
1.71419
1.53758
1.19348
0.648974
56.2619
57.3433
59.9437
64.1373
70.0108
77.741
87.4939
99.2473
112.591
126.428
138.638
145.909
145.02
134.94
118.151
99.2168
81.2558
65.3918
51.9207
40.8854
32.1171
25.2429
19.8853
15.7753
12.6546
10.2588
8.39969
6.96381
5.86526
5.0258
4.37875
3.87369
3.47268
3.14398
2.85691
2.57904
2.27297
1.89169
1.37415
0.645649
55.3012
56.3645
58.9151
63.0519
68.9131
76.7609
86.9027
99.5356
114.535
131.069
147.026
157.385
156.518
143.001
121.793
99.8453
80.2028
63.407
49.5549
38.5646
30.0984
23.4127
18.2053
14.3807
11.5737
9.41058
7.71109
6.39022
5.37108
4.58057
3.96252
3.47589
3.08793
2.77035
2.49721
2.24113
1.96886
1.63468
1.17715
0.529141
53.4104
54.4188
56.8386
60.808
66.5524
74.4889
85.2
99.3558
117.534
139.679
163.085
180.872
180.309
158.751
129.076
102.02
79.1844
60.4984
45.8441
34.8577
27.1386
20.7665
15.582
12.0313
9.5231
7.58746
6.10308
4.99672
4.16942
3.53993
3.05849
2.69176
2.41299
2.1983
2.02944
1.88668
1.74442
1.55742
1.24217
0.638417
50.6405
51.5391
53.7006
57.3
62.6554
70.3622
81.3697
97.108
119.675
152.05
185.754
222.985
227.023
190.156
145.901
112.053
83.3946
61.0951
44.6368
32.7758
20.2265
14.8104
11.414
9.33436
7.35104
5.55041
4.16613
3.1478
2.37167
1.76623
1.29751
0.944585
0.683488
0.493229
0.366943
0.297644
0.276749
0.274685
0.211314
-0.119931
47.0997
47.8185
49.5488
52.4778
56.9689
63.7181
73.9352
89.6949
114.593
156.014
224.364
302.218
321.657
221.324
151.048
110.295
74.2652
49.452
33.1942
22.8411
15.7486
-0.77591
0.67359
2.54312
2.25185
1.44617
0.822909
0.344138
-0.0679299
-0.417791
-0.700792
-0.911393
-1.06108
-1.15378
-1.17952
-1.12425
-0.965264
-0.689524
-0.350667
-0.29989
42.9642
43.4341
44.5445
46.4532
49.4752
54.2214
61.8188
74.4183
96.3998
147.134
235.373
419.572
570.159
208.484
161.392
110.072
62.0848
35.0822
19.7562
10.5564
1.70555
-7.6516
-3.17053
-2.77272
-3.67051
-4.17773
-4.37607
-4.52437
-4.66236
-4.76182
-4.81379
-4.83735
-4.8181
-4.75858
-4.63998
-4.42716
-4.05689
-3.41396
-2.29164
-0.348703
38.5096
38.6631
38.9985
39.5909
40.5965
42.2987
45.203
50.2469
59.2034
96.0802
169.648
399.375
1873.01
218.91
89.2676
32.1474
12.2654
2.9454
-6.06995
-11.6671
13.0796
10.1531
3.43633
-0.367167
-2.12971
-3.12926
-3.83114
-4.3244
-4.64321
-4.83322
-4.9279
-4.95563
-4.92931
-4.82546
-4.61657
-4.24415
-3.60682
-2.53661
-0.817591
34.0638
33.877
33.3719
32.5223
31.2771
29.4936
26.8596
22.6584
15.0651
17.6006
4.51802
-137.752
-917.623
-963.789
-271.27
-82.1993
-39.3976
-25.1525
-18.5898
-13.2767
-5.48486
-9.16624
-8.67145
-7.89027
-6.97151
-5.91991
-4.94496
-4.15237
-3.52644
-3.02469
-2.61601
-2.2691
-1.98766
-1.74479
-1.50353
-1.23431
-0.90092
-0.47123
0.0347338
0.343524
29.9843
29.4738
28.1842
25.9911
22.679
17.7928
10.5023
-0.726402
-18.8492
-39.8634
-103.415
-230.83
-418.321
-440.624
-274.51
-148.792
-87.0054
-55.0678
-37.0111
-25.3569
-17.0197
-12.5698
-7.99041
-4.59574
-2.77458
-1.79942
-1.15513
-0.705635
-0.409893
-0.220139
-0.0929671
-0.00165717
0.0656219
0.12414
0.190037
0.274297
0.382167
0.503557
0.578054
0.443187
26.6112
25.8353
23.9029
20.6377
15.7298
8.58691
-1.7775
-16.9652
-39.6534
-74.5144
-123.312
-184.997
-240.875
-248.001
-200.054
-139.996
-95.3244
-66.6124
-47.6106
-34.2537
-24.8762
-18.9399
-13.6406
-9.70642
-7.1944
-5.50601
-4.20626
-3.15882
-2.3265
-1.66925
-1.14357
-0.716972
-0.369477
-0.086211
0.148275
0.339404
0.484286
0.564852
0.537998
0.346957
24.2155
23.2541
20.8802
16.8948
10.9639
2.48181
-9.45211
-26.0506
-48.8257
-79.3167
-117.523
-159.163
-192.228
-199.146
-174.651
-135.057
-99.1233
-72.6926
-53.7491
-39.6991
-29.1813
-21.4049
-15.2897
-10.6344
-7.26565
-4.84498
-3.06217
-1.73181
-0.746893
-0.0267035
0.49654
0.874534
1.14316
1.32609
1.44033
1.4909
1.47097
1.35854
1.11014
0.657316
22.9791
21.9206
19.3246
14.9853
8.56932
-0.507956
-13.0515
-30.0017
-52.2556
-80.1733
-112.479
-144.735
-168.754
-174.984
-159.78
-130.872
-100.497
-75.5583
-56.6411
-42.2458
-31.2216
-22.8792
-16.5823
-11.8294
-8.31591
-5.76703
-3.90734
-2.52553
-1.48839
-0.708836
-0.122507
0.318865
0.648584
0.887791
1.04854
1.13299
1.13315
1.03063
0.801189
0.441631
54.3905
55.3364
57.5987
61.2358
66.3124
72.9653
81.3163
91.3182
102.589
114.166
124.233
130.055
128.923
119.98
105.384
88.9465
73.2302
59.1838
47.1281
37.1766
29.2369
23.0032
18.1127
14.2976
11.3623
9.10529
7.36073
6.01707
4.9912
4.21192
3.61593
3.15232
2.78772
2.49516
2.24913
2.02259
1.78394
1.49427
1.10135
0.528642
53.4745
54.4039
56.6171
60.1939
65.243
71.9725
80.6203
91.3197
103.92
117.668
130.711
139.027
137.922
126.113
107.888
89.0231
71.9337
57.1141
44.7713
34.9317
27.3683
21.4131
16.7096
13.1134
10.402
8.30672
6.66638
5.39384
4.4165
3.67043
3.09996
2.65591
2.30798
2.03258
1.80977
1.61595
1.42478
1.20063
0.89285
0.425829
51.676
52.5542
54.6417
58.0515
62.9663
69.7225
78.7848
90.6763
105.828
124.144
143.414
157.626
156.45
137.887
112.828
89.9131
70.2383
53.8673
40.9014
31.2266
24.779
19.3033
14.3232
10.7392
8.28944
6.48094
5.10964
4.08332
3.31596
2.73034
2.28077
1.94421
1.69734
1.51535
1.38524
1.29584
1.23558
1.17627
1.05035
0.667408
49.0498
49.8259
51.6711
54.7296
59.2613
65.7503
74.9632
88.0479
106.694
133.338
163.879
195.247
197.833
165.43
127.844
98.8751
73.7517
54.074
39.4852
29.1645
19.4433
16.4745
11.1903
7.35605
4.77944
2.92332
1.6116
0.703864
0.0610286
-0.403582
-0.73528
-0.957879
-1.09448
-1.17084
-1.18608
-1.13038
-0.98953
-0.753972
-0.446447
-0.236457
45.703
46.3146
47.7648
50.2066
53.9388
59.5295
67.9605
80.9206
101.379
138.06
196.234
263.557
279.073
189.6
132.453
96.5914
64.0754
41.8913
27.4809
18.7757
15.1906
5.75487
3.9456
2.73598
1.28735
0.0391664
-0.848647
-1.50406
-2.02765
-2.44986
-2.78522
-3.03013
-3.19809
-3.30184
-3.32228
-3.21715
-2.93276
-2.38119
-1.48987
-0.524482
41.8099
42.1932
43.083
44.6047
47.017
50.8156
56.9126
67.072
84.95
129.765
209
376.698
512.74
174.119
156.349
97.8381
51.4551
26.4014
12.5434
4.34587
-5.42126
-33.6077
-29.6533
-27.0517
-25.7738
-24.4902
-23.2799
-22.279
-21.4438
-20.7057
-20.0301
-19.4195
-18.8361
-18.2407
-17.6037
-16.8657
-15.9053
-14.4696
-11.9921
-7.06545
37.6208
37.7271
37.9228
38.2696
38.8949
40.0176
42.0371
45.7121
52.5439
85.1322
152.563
372.484
1793.26
274.704
73.16
17.2572
-1.21058
-9.12603
-14.9022
-19.0179
-0.552894
-3.89685
-9.3831
-12.0905
-13.1388
-13.6197
-13.8851
-13.9941
-13.9722
-13.8568
-13.6932
-13.454
-13.1495
-12.7628
-12.2358
-11.4575
-10.1984
-8.02439
-4.27353
33.4567
33.2574
32.704
31.7717
30.4128
28.4931
25.7323
21.5147
14.3343
16.4055
5.42381
-120.503
-833.771
-863.28
-233.213
-73.9819
-41.1467
-30.0271
-24.1448
-18.9181
-13.3948
-21.5724
-17.7226
-14.096
-11.9214
-10.3425
-9.10182
-8.16681
-7.47003
-6.93728
-6.51785
-6.16898
-5.87623
-5.60643
-5.31817
-4.95952
-4.45815
-3.70218
-2.56992
-1.12882
29.6463
29.1531
27.8999
25.7771
22.5986
17.972
11.1877
0.956223
-15.1864
-33.9075
-89.2645
-200.457
-364.966
-382.412
-237.014
-130.754
-79.3132
-52.2844
-36.5841
-26.5401
-20.7686
-19.4144
-12.8605
-7.73162
-5.19568
-3.88662
-3.01905
-2.41135
-2.00545
-1.73616
-1.54853
-1.41053
-1.30303
-1.19779
-1.07383
-0.90749
-0.670878
-0.338162
0.073883
0.369698
26.4972
25.7641
23.939
20.8659
16.2827
9.6817
0.226548
-13.4237
-33.4929
-63.8543
-105.931
-158.811
-206.488
-213.061
-173.344
-123.376
-85.956
-61.4672
-44.9101
-33.1907
-25.18
-20.54
-15.2198
-10.9544
-8.20835
-6.35341
-4.92408
-3.78309
-2.88929
-2.19452
-1.64904
-1.21414
-0.867109
-0.581062
-0.337212
-0.120489
0.0786015
0.258212
0.386354
0.367457
24.2633
23.363
21.1438
17.4324
11.9459
4.16611
-6.67143
-21.5818
-41.8109
-68.6029
-101.876
-137.899
-166.588
-172.994
-152.761
-119.679
-89.3073
-66.5614
-49.942
-37.4712
-28.1329
-21.2803
-15.7503
-11.3123
-7.986
-5.55417
-3.74436
-2.38161
-1.36302
-0.610003
-0.055545
0.352121
0.649744
0.864907
1.01667
1.11528
1.16103
1.13972
1.01215
0.683514
23.1125
22.1236
19.7059
15.6804
9.7641
1.45718
-9.92329
-25.1645
-44.9957
-69.6686
-98.0296
-126.244
-147.34
-153.204
-140.753
-116.535
-90.7194
-69.1665
-52.5287
-39.6986
-29.8029
-22.2896
-16.5615
-12.1095
-8.72024
-6.20956
-4.34796
-2.94477
-1.87767
-1.06612
-0.449363
0.01961
0.374711
0.639512
0.828623
0.948601
0.996306
0.958134
0.810298
0.520601
52.3536
53.1511
55.044
58.0728
62.2762
67.7437
74.5421
82.5878
91.5154
100.494
108.048
112.08
110.541
102.854
90.7808
77.2255
64.1306
52.2396
41.8545
33.1285
26.04
20.4103
16.0085
12.5988
9.96428
7.91369
6.31085
5.0648
4.1043
3.37266
2.81297
2.37236
2.0235
1.74161
1.51024
1.30633
1.10235
0.872822
0.58649
0.215497
51.4853
52.268
54.1119
57.0751
61.2319
66.7253
73.708
82.2258
92.0714
102.536
112.039
117.76
116.124
106.305
91.6584
76.473
62.4808
50.0742
39.509
30.8657
23.9783
18.6012
14.4383
11.268
8.83895
6.93226
5.42334
4.23323
3.29566
2.5855
2.06174
1.64327
1.30477
1.03197
0.82025
0.650693
0.500575
0.347258
0.169741
-0.0248222
49.7856
50.521
52.2436
55.038
59.0365
64.4781
71.6805
80.9682
92.5359
106.109
119.9
129.339
127.246
112.324
92.8371
75.0781
59.5309
46.1685
35.249
26.6956
20.0747
15.3147
11.4498
8.5457
6.35998
4.6781
3.40233
2.44313
1.73277
1.17417
0.720553
0.390681
0.16134
0.011145
-0.0868888
-0.131455
-0.125375
-0.0735121
0.000524385
0.0350089
47.3132
47.9554
49.4518
51.9131
55.5289
60.6475
67.8018
77.7494
91.5351
110.474
135.586
157.763
158.338
132.635
103.491
80.9016
60.9702
44.9751
32.7832
23.81
12.2334
9.47853
6.39839
3.86705
1.72658
0.0352987
-1.22195
-2.12828
-2.79969
-3.30174
-3.66649
-3.90608
-4.04535
-4.1107
-4.09865
-3.98656
-3.75088
-3.34004
-2.67279
-1.57719
44.18
44.6673
45.8082
47.7103
50.5915
54.8614
61.1994
70.7429
85.4416
114.633
156.099
203.722
210.529
140.328
99.6134
72.9448
47.8438
30.3337
18.7202
11.7493
9.7675
-2.46364
-3.57445
-4.86586
-6.2151
-7.30238
-8.02025
-8.50893
-8.86467
-9.12257
-9.2988
-9.40498
-9.42151
-9.34579
-9.20309
-8.91717
-8.41221
-7.53749
-6.03535
-3.49299
40.5523
40.8307
41.4754
42.5654
44.2879
46.9873
51.2823
58.3391
70.523
105.092
165.745
292.806
391.463
104.722
114.055
58.4915
21.3696
2.29035
-7.85281
-12.9426
-11.6766
-26.0467
-27.3328
-30.8036
-31.8304
-31.5235
-30.9308
-30.288
-29.6038
-28.8863
-28.1519
-27.396
-26.6524
-25.9058
-25.0754
-24.0964
-22.8224
-20.904
-17.5224
-10.6558
36.6326
36.6902
36.731
36.8019
36.9897
37.4275
38.3487
40.1871
43.7996
68.2904
119.939
301.451
1601.46
262.021
-14.9407
-59.198
-68.615
-70.0049
-68.4461
-63.4222
-35.9245
-35.0937
-37.2512
-37.4295
-36.4775
-35.3483
-34.265
-33.2104
-32.1753
-31.1665
-30.2085
-29.264
-28.2869
-27.2849
-26.1616
-24.7596
-22.7074
-19.143
-11.8231
32.782
32.5637
31.9534
30.9235
29.4259
27.3274
24.3605
19.9849
13.0035
13.5386
3.67906
-94.7274
-663.88
-655.679
-186.81
-76.5808
-52.9945
-43.2744
-37.1978
-31.7067
-28.9801
-31.4256
-27.367
-23.5117
-21.0872
-19.2217
-17.7167
-16.5315
-15.5827
-14.8009
-14.1397
-13.569
-13.075
-12.5792
-12.0679
-11.4844
-10.7246
-9.60198
-7.77527
-4.57268
29.2597
28.7842
27.5645
25.5123
22.4725
18.1166
11.8674
2.73047
-11.0265
-27.0134
-71.3042
-156.535
-280.146
-293.73
-187.295
-109.293
-70.4198
-48.7676
-35.4811
-26.8937
-24.2361
-19.3134
-15.3064
-12.1
-10.136
-8.80156
-7.7698
-6.96262
-6.33686
-5.84414
-5.44432
-5.10902
-4.82377
-4.55417
-4.27636
-3.96099
-3.56353
-3.02123
-2.24915
-1.14088
26.3508
25.6621
23.9504
21.0823
16.8488
10.8368
2.38153
-9.5455
-26.5872
-51.5824
-85.2937
-126.349
-162.441
-168.574
-140.184
-103.013
-74.1306
-54.3286
-40.3342
-30.1031
-22.8933
-18.8487
-15.1155
-11.987
-9.64914
-7.88001
-6.47408
-5.34267
-4.43874
-3.71627
-3.13392
-2.65821
-2.2676
-1.93428
-1.63824
-1.36156
-1.0896
-0.809401
-0.514842
-0.19381
24.291
23.4566
21.4026
17.9866
12.9827
5.97218
-3.65296
-16.674
-33.9993
-56.4611
-83.7912
-112.839
-135.879
-141.425
-126.527
-101.526
-77.663
-59.0601
-44.98
-34.1421
-25.8628
-19.7708
-15.0785
-11.3578
-8.50191
-6.35125
-4.71962
-3.47182
-2.51782
-1.78999
-1.23324
-0.805232
-0.474734
-0.217458
-0.016337
0.13887
0.249883
0.309799
0.30299
0.219708
23.2318
22.3171
20.0916
16.4049
11.0317
3.56936
-6.52564
-19.8592
-36.9504
-57.8904
-81.6243
-104.988
-122.445
-127.694
-118.476
-99.7066
-79.1425
-61.409
-47.2888
-36.1376
-27.3854
-20.6765
-15.5944
-11.6965
-8.71966
-6.46972
-4.76631
-3.46448
-2.46372
-1.69338
-1.09975
-0.640863
-0.285872
-0.0133812
0.190689
0.333475
0.412786
0.418873
0.343258
0.212385
50.3032
50.9503
52.474
54.8944
58.2247
62.5074
67.7549
73.8488
80.4413
86.8333
91.8833
94.0936
92.1198
85.689
76.1186
65.4254
54.9687
45.2924
36.6559
29.2383
23.0878
18.131
14.2439
11.275
8.99263
7.19889
5.78306
4.67854
3.82721
3.17566
2.6752
2.28506
1.97857
1.73407
1.53244
1.35261
1.16939
0.954318
0.671742
0.280052
49.4831
50.1154
51.5906
53.9405
57.2048
61.4628
66.7821
73.124
80.2288
87.4441
93.5032
96.3959
94.0535
86.1762
75.1396
63.6792
52.9121
43.0926
34.4662
27.1921
21.229
16.4489
12.7635
10.0627
8.02556
6.42371
5.15681
4.16145
3.38081
2.77172
2.29653
1.91902
1.61794
1.37717
1.18353
1.02202
0.872755
0.711158
0.503703
0.206761
47.8819
48.4694
49.829
52.0082
55.0904
59.2183
64.563
71.2535
79.2559
88.1337
96.496
101.138
97.6651
85.9521
71.8843
59.2982
48.0691
37.9231
29.2037
22.0449
16.2516
11.7847
8.98277
7.00193
5.33092
3.97317
2.9582
2.22075
1.68091
1.27779
0.977638
0.764486
0.61978
0.525634
0.470229
0.451444
0.464879
0.495798
0.5024
0.357097
45.5613
46.0622
47.2142
49.0802
51.7806
55.5293
60.6257
67.4374
76.3665
87.7232
99.7772
108.404
102.445
82.9708
65.1874
52.2391
40.8666
30.9021
22.6912
15.8925
9.13315
2.85968
2.86342
3.19785
2.50978
1.54467
0.722886
0.0724598
-0.453271
-0.876068
-1.20281
-1.43848
-1.5936
-1.68142
-1.69991
-1.63351
-1.46493
-1.1694
-0.739121
-0.250771
42.6331
43.0005
43.8319
45.1986
47.2273
50.1734
54.4075
60.483
69.1809
89.2338
110.673
131.856
125.955
84.0005
60.1244
46.8822
31.8275
20.1641
12.0386
6.34861
0.77626
-13.383
-10.8696
-7.90573
-6.57417
-5.92022
-5.47978
-5.17437
-4.9841
-4.87385
-4.80939
-4.76269
-4.71431
-4.64944
-4.53323
-4.3169
-3.93558
-3.28566
-2.25717
-0.888123
39.2582
39.449
39.8476
40.5069
41.5381
43.1335
45.6061
49.4774
55.632
77.271
104.844
149.858
168.322
28.8739
21.4768
4.96048
-4.50056
-9.19603
-12.6608
-15.0893
-21.081
-13.6055
-14.8592
-16.5412
-16.9772
-16.8765
-16.6587
-16.4155
-16.1513
-15.8678
-15.5665
-15.2306
-14.8798
-14.5059
-14.047
-13.4424
-12.5826
-11.2345
-8.95528
-4.99529
35.654
35.636
35.5165
35.3114
35.0604
34.8076
34.6055
34.5172
34.5974
48.3851
59.8752
130.684
174.7
-685.217
-130.068
-92.8357
-68.8421
-63.154
-58.6445
-55.0458
-67.4396
-40.6244
-38.1911
-35.9685
-34.0027
-32.0927
-30.3972
-28.9362
-27.6488
-26.4934
-25.4463
-24.4912
-23.6056
-22.7302
-21.832
-20.8446
-19.6488
-17.9583
-15.1422
-9.56648
32.0951
31.8495
31.179
30.0502
28.4136
26.1308
22.9318
18.3101
11.275
9.41278
-12.7526
-81.6649
-305.522
-256.699
-106.122
-58.7182
-38.542
-29.2869
-23.78
-19.1098
-11.0813
4.51524
1.58554
-2.10283
-3.68565
-4.38355
-4.80655
-5.09014
-5.26665
-5.36594
-5.4138
-5.43225
-5.41363
-5.33109
-5.16912
-4.90348
-4.46728
-3.73775
-2.56114
-0.998838
28.8538
28.3903
27.2049
25.223
22.3215
18.2317
12.489
4.30259
-7.79316
-26.779
-51.1015
-105.68
-175.964
-187.347
-129.609
-82.8964
-56.5145
-40.1906
-29.479
-21.6342
-11.2883
-2.07723
-2.87537
-4.21399
-4.17209
-3.66401
-3.17924
-2.78109
-2.45261
-2.18419
-1.96747
-1.78944
-1.64019
-1.50436
-1.35079
-1.15816
-0.902656
-0.553921
-0.127017
0.176992
26.1829
25.5393
23.9359
21.2724
17.389
11.9664
4.50793
-5.7186
-19.754
-38.9341
-63.9528
-92.5381
-116.719
-122.103
-105.498
-81.3025
-60.8099
-45.7013
-34.3583
-25.3546
-17.7808
-12.5473
-9.56824
-7.41798
-5.51385
-3.94529
-2.75533
-1.86907
-1.20458
-0.705342
-0.330575
-0.0478286
0.165218
0.331632
0.474606
0.606063
0.730424
0.837852
0.875344
0.67239
24.2943
23.5239
21.6355
18.5154
13.9956
7.75731
-0.649867
-11.7711
-26.1611
-44.1513
-65.2213
-87.0482
-103.976
-108.872
-99.6643
-82.5776
-65.2156
-50.8025
-39.3283
-30.0833
-22.5963
-16.7524
-12.2559
-8.92131
-6.40889
-4.49044
-3.03197
-1.92623
-1.08664
-0.448594
0.0353999
0.401628
0.677342
0.883562
1.03508
1.13936
1.19267
1.17521
1.03908
0.681833
23.3248
22.4857
20.4512
17.1041
12.2766
5.66248
-3.14115
-14.5525
-28.8705
-45.9991
-64.9595
-83.3078
-96.9507
-101.539
-95.557
-82.2137
-66.8448
-52.9235
-41.3624
-31.9113
-24.2417
-18.1557
-13.4555
-9.8986
-7.18748
-5.09049
-3.46632
-2.21512
-1.25529
-0.520947
0.0388575
0.463074
0.781376
1.0149
1.17694
1.27359
1.29916
1.23505
1.04428
0.665295
48.3842
48.89
50.0718
51.9347
54.4659
57.6693
61.5141
65.8617
70.3969
74.5597
77.5206
78.2935
76.095
70.8767
63.535
55.3521
47.2142
39.5229
32.5095
26.3662
21.1937
16.9879
13.6728
11.1075
9.09463
7.48064
6.18494
5.15646
4.34755
3.71244
3.21186
2.81354
2.49156
2.2239
1.99036
1.77001
1.53646
1.25788
0.894289
0.3961
47.6091
48.1004
49.2337
51.0241
53.4734
56.6109
60.4369
64.8551
69.5894
74.0816
77.4018
78.306
75.7232
69.6925
61.658
53.2202
45.0862
37.4557
30.5608
24.6138
19.682
15.7375
12.714
10.4181
8.60679
7.13984
5.95604
5.00705
4.24478
3.62929
3.13041
2.72392
2.38932
2.10857
1.86533
1.6436
1.42098
1.16642
0.836291
0.37467
46.0997
46.5488
47.5693
49.1904
51.4418
54.389
58.0901
62.5345
67.5427
72.6038
76.6162
77.7482
74.0922
66.0409
56.7005
48.1614
40.3177
32.8926
26.2242
20.6019
16.0605
12.633
10.3316
8.5302
6.92285
5.56044
4.4926
3.6784
3.05458
2.57284
2.20116
1.91559
1.69778
1.53191
1.40466
1.30533
1.21803
1.11338
0.931909
0.545809
43.9215
44.2927
45.1223
46.4456
48.3246
50.8588
54.1722
58.3648
63.4282
69.033
73.9937
75.5411
69.9108
58.3015
47.6197
39.7988
32.9058