/*--------------------------------*- C++ -*----------------------------------*\
| =========                 |                                                 |
| \\      /  F ield         | OpenFOAM: The Open Source CFD Toolbox           |
|  \\    /   O peration     | Version:  2306                                  |
|   \\  /    A nd           | Website:  www.openfoam.com                      |
|    \\/     M anipulation  |                                                 |
\*---------------------------------------------------------------------------*/
FoamFile
{
    version     2.0;
    format      ascii;
    arch        "LSB;label=32;scalar=64";
    class       surfaceScalarField;
    location    "0.7";
    object      phi;
}
// * * * * * * * * * * * * * * * * * * * * * * * * * * * * * * * * * * * * * //

dimensions      [0 3 -1 0 0 0 0];

oriented        oriented;

internalField   nonuniform List<scalar> 
338621
(
24.9951
0.00211608
0.00145713
24.9875
0.00463211
0.00298582
24.9754
0.00748662
0.0047167
24.9582
0.0105538
0.00679662
24.9349
0.0139535
0.00953823
24.9019
0.0201017
0.0131064
24.8548
0.0297847
0.0176054
24.7913
0.0406151
0.0233299
24.7286
0.0326761
0.0304852
24.6845
0.00575197
0.0389365
24.655
-0.0184175
0.0484972
24.58
0.0170918
0.0586047
24.6079
-0.0959417
0.0688246
24.7381
-0.207731
0.0781841
24.7804
-0.12774
0.0860838
24.8139
-0.125189
0.0922612
24.8442
-0.126904
0.096924
24.8692
-0.125477
0.100688
24.8905
-0.124844
0.103714
24.9187
-0.134425
0.1063
24.9498
-0.139434
0.108347
24.9735
-0.133879
0.110189
24.9916
-0.129947
0.111892
25.0061
-0.12787
0.113316
25.0181
-0.126603
0.114588
25.0279
-0.125492
0.11571
25.0362
-0.124841
0.11661
25.0429
-0.12408
0.117282
25.0485
-0.123357
0.117827
25.0532
-0.122929
0.118222
25.0573
-0.122543
0.118458
25.061
-0.122218
0.118516
25.0643
-0.121885
0.118516
25.0674
-0.121556
0.118446
25.0704
-0.121259
0.118272
25.0737
-0.121309
0.118034
25.0772
-0.121221
0.117698
25.0811
-0.121197
0.117352
25.0854
-0.121297
0.11697
-0.121805
0.116335
24.9951
0.00423162
0.00142465
24.9874
0.00942477
0.00288601
24.9749
0.0155267
0.00458878
24.9575
0.0213875
0.00664055
24.9341
0.0281509
0.00934734
24.9043
0.0372973
0.0127947
24.8683
0.0488272
0.0173269
24.8219
0.0641758
0.0231228
24.7566
0.0680076
0.030444
24.6809
0.0426214
0.0393127
24.6368
-0.023476
0.0496425
24.6224
-0.0285603
0.0606322
24.6602
-0.205552
0.072317
24.7442
-0.37394
0.0828236
24.8251
-0.299503
0.0913423
24.8946
-0.292163
0.0978053
24.9485
-0.283169
0.102637
24.9924
-0.275732
0.106455
25.0391
-0.281069
0.109555
25.0747
-0.281994
0.112026
25.0963
-0.275086
0.114049
25.1117
-0.265065
0.115762
25.1222
-0.25781
0.117401
25.1301
-0.254626
0.118789
25.1358
-0.252281
0.119987
25.1399
-0.250598
0.12098
25.1423
-0.248994
0.121837
25.1439
-0.248206
0.122511
25.1451
-0.247615
0.123046
25.1456
-0.246875
0.123445
25.1458
-0.246448
0.123711
25.1455
-0.245818
0.123851
25.1455
-0.245731
0.123899
25.1455
-0.245415
0.123852
25.1457
-0.245159
0.123708
25.1461
-0.245257
0.123518
25.1469
-0.245248
0.123197
25.1483
-0.245409
0.12286
25.1505
-0.245994
0.122426
-0.24616
0.121769
24.9954
0.00604449
0.0013486
24.9878
0.0143466
0.00273169
24.9759
0.0231979
0.00431411
24.9578
0.0331581
0.00633702
24.9334
0.0438347
0.00893885
24.9019
0.0566317
0.0123184
24.8615
0.0725631
0.0168645
24.8117
0.0915101
0.0227543
24.7419
0.107669
0.0304514
24.6429
0.101726
0.0402403
24.5648
0.00587125
0.0521529
-0.00542811
0.00634848
-0.00399919
24.6601
-0.0380522
0.0657629
-0.0577775
-0.0367206
-0.056743
24.5518
-0.0103842
0.0785693
-0.0946777
0.022572
-0.0930009
24.7246
-0.181328
0.0905234
-0.123062
-0.211105
-0.121395
24.8187
-0.127933
0.0992425
-0.120498
-0.12588
-0.118269
24.8808
-0.116982
0.105494
-0.115018
-0.11462
-0.112957
24.9363
-0.113156
0.110096
-0.113367
-0.111352
-0.110855
25.0037
-0.11574
0.113754
-0.114703
-0.113768
-0.112725
25.0483
-0.112246
0.116731
-0.110878
-0.110339
-0.109076
25.0757
-0.108539
0.118961
-0.10753
-0.10668
-0.105685
25.0953
-0.415274
0.120524
25.1106
-0.402244
0.121895
25.1203
-0.390878
0.12341
25.1273
-0.386497
0.124794
25.1326
-0.383475
0.125933
25.136
-0.38079
0.126802
25.1377
-0.378168
0.12745
25.1386
-0.37707
0.127924
25.1383
-0.37555
0.128254
25.138
-0.375
0.128471
25.137
-0.374084
0.128584
25.1361
-0.373511
0.128605
25.1349
-0.373016
0.128489
25.1339
-0.372816
0.128379
25.1328
-0.372186
0.128106
25.132
-0.372174
0.12779
25.1317
-0.372338
0.127323
25.132
-0.372515
0.126802
25.1327
-0.372854
0.126163
-0.373262
0.125343
24.9957
0.00817409
0.00123269
24.989
0.0185877
0.00250105
24.9772
0.0310644
0.00393348
24.9603
0.0442838
0.00584009
24.9356
0.060367
0.00825946
24.901
0.0799502
0.0114919
24.855
0.102825
0.0158847
24.7962
0.128755
0.0217468
24.7288
0.145589
0.0296847
6.14062
0.0373896
0.0403499
0.0547925
0.0388173
0.0552238
6.16271
6.13994
6.16088
6.12287
0.0177541
0.00588355
-6.10955
6.09721
-0.0333832
0.00768772
-6.10095
6.12235
-0.0412718
0.00949652
-6.11455
6.14149
-0.219559
0.0112956
-6.16023
6.17455
-0.154803
0.0125553
-6.18791
6.19873
-0.141108
0.0133108
-6.21025
6.22478
-0.141595
0.0139019
-6.23703
6.24454
-0.137647
0.0143944
-6.25067
6.25619
-0.132558
0.0147831
-6.26093
6.26526
-0.127982
0.0151018
25.1076
-0.140302
0.125231
-0.14143
-0.138821
-0.140496
-6.26922
-6.27396
-6.26972
-6.27424
25.1153
-0.53601
0.126049
25.1195
-0.522483
0.127384
25.123
-0.518658
0.128647
25.1239
-0.514145
0.129788
25.1226
-0.51023
0.130742
25.1205
-0.5076
0.131505
25.1169
-0.505596
0.132102
25.1123
-0.503516
0.132552
25.107
-0.502516
0.132868
25.1014
-0.501485
0.133044
25.0953
-0.500539
0.133074
25.0889
-0.499535
0.132908
25.0826
-0.499207
0.132693
25.0765
-0.498299
0.132229
25.0703
-0.49765
0.131642
25.0644
-0.49728
0.130826
25.0589
-0.49679
0.12982
25.0547
-0.497283
0.128647
-0.496796
0.127259
24.9973
0.00866964
0.00107632
24.9914
0.0223549
0.00218812
24.9816
0.0374363
0.00343978
24.9661
0.054704
0.00512529
24.9432
0.0761489
0.00726786
24.9095
0.103517
0.0101484
24.8593
0.139158
0.0140701
24.7845
0.184185
0.0194987
6.17076
0.234975
0.0269287
6.16343
6.17063
6.16345
6.15452
0.0496154
0.00402003
6.1287
0.00562587
-6.1569
0.020438
0.012031
0.0118932
0.0204954
-0.0422821
-6.07561
6.04107
0.00758241
-0.00176796
0.00439571
0.00412182
-0.00169547
0.0218936
-6.04044
6.05873
0.00965047
0.0294346
-0.0398996
-0.0400311
-0.0188515
0.0413777
-6.11131
6.13684
0.0117941
-0.051509
-0.0662702
-0.104177
-0.0519317
0.236531
-6.16943
6.18138
0.0127124
-0.0496806
-0.0536591
-0.0529742
-0.0500766
0.181716
-6.19304
6.20649
0.0131509
-0.0498129
-0.049083
-0.0489952
-0.0498778
0.171153
-6.22019
6.23219
0.0135944
-0.0479409
-0.0479037
-0.047823
-0.048063
0.166114
-6.24208
6.24962
0.0140347
-0.0452548
-0.0452415
-0.0450613
-0.0454612
0.159424
-6.2563
6.26119
0.0144376
-0.0427525
-0.0430439
-0.0428207
-0.0429794
0.152256
-6.26558
6.268
0.0148055
-0.0406581
-0.041107
-0.0409248
-0.0408168
0.146272
-6.27134
6.27372
-0.158364
0.0156755
25.0637
-0.621894
0.113569
-6.27482
-6.26878
-6.27573
-6.27203
25.0411
-0.613626
0.113684
25.0154
-0.605625
0.112687
24.9886
-0.598837
0.111463
24.9623
-0.594318
0.110374
24.9364
-0.591113
0.10945
24.9108
-0.58872
0.108675
24.8864
-0.587152
0.108023
24.8625
-0.586036
0.107431
24.8396
-0.58542
0.10684
24.8179
-0.585034
0.106193
24.7975
-0.584554
0.105418
24.7778
-0.584118
0.104604
24.7596
-0.583662
0.103615
24.7424
-0.583003
0.102485
24.7265
-0.582464
0.101164
24.7122
-0.582091
0.0996147
24.6995
-0.582459
0.0978354
-0.584359
0.0957754
24.9999
0.00723237
0.000885738
24.9965
0.023924
0.00180909
24.989
0.0421916
0.00284741
24.9771
0.0623754
0.00417489
24.9595
0.0879659
0.0059263
24.9322
0.12256
0.00822965
24.8889
0.17126
0.0113146
24.8161
0.241412
0.0156326
6.17034
0.349299
0.0214856
6.16992
6.17033
6.16977
-0.0656729
6.14456
0.0882369
0.00322396
-0.0198229
-1.52742
1.52223
0.0244016
0.000609118
-0.0196953
-1.50389
1.49173
0.0310861
0.000766746
-1.46822
0.0519336
1.47817
-0.063004
0.00111981
-1.52993
0.0840183
1.53876
-0.0940237
0.00117834
-1.53712
0.0600071
-0.0637661
0.00182595
1.53905
-1.54787
0.0576773
-0.0619955
0.00188061
1.5503
0.0551813
-1.5559
1.55736
-0.0586218
0.00197654
0.0511496
-1.56044
1.56105
-0.0538365
0.00207139
0.0481766
-1.56194
1.56211
-0.0504088
0.00206034
0.0453939
-1.56176
1.56147
-0.0470112
0.00190677
-1.55485
0.172619
6.16131
-0.169113
0.0189797
-1.53966
-1.55387
-1.53541
23.8891
-0.685363
0.0547587
-6.10521
-5.80867
-6.12714
-5.83937
23.8896
-0.671399
0.0572168
23.8908
-0.664109
0.0573324
23.8936
-0.658215
0.0565912
23.8975
-0.65384
0.0556163
23.9024
-0.650535
0.0544996
23.9084
-0.648015
0.0532826
23.9153
-0.646061
0.0520027
23.9231
-0.644535
0.0506864
23.9316
-0.643253
0.0493559
23.9406
-0.642037
0.0480323
23.9502
-0.640885
0.0467114
23.9602
-0.6396
0.0454684
23.9705
-0.638133
0.0442421
23.9811
-0.636679
0.043019
23.992
-0.635069
0.041741
24.003
-0.633415
0.0403039
24.0137
-0.631747
0.038567
-0.629657
0.0364307
25.003
0.00335492
0.000686032
25.0035
0.0220428
0.00136995
25.0006
0.0429558
0.00215464
24.9949
0.0650364
0.00308323
24.9861
0.0925267
0.00427745
24.9725
0.130334
0.0058298
24.9527
0.183246
0.00776544
24.9215
0.262365
0.0102741
6.21301
0.389564
0.0133448
6.22113
6.21277
6.22099
-0.106626
6.19748
0.120196
0.00195396
-0.0395496
-1.5419
1.53571
0.0453932
0.000350612
-0.0823541
-1.50599
1.4873
0.1006
0.000442236
0.00441681
-0.0746775
0.074868
-0.00462897
2.16724e-05
-0.0214044
0.000448767
0.0209164
2.99804e-06
3.61589e-05
-0.237266
0.0170074
-0.0280499
0.00261322
0.245696
-1.19622
0.0629871
-0.0807895
-0.000250811
1.21427
0.0557855
-1.25366
1.2624
-0.0630927
-0.00143864
0.0532845
-1.28953
1.29838
-0.0609079
-0.00122273
0.049346
-1.32037
1.32693
-0.0552996
-0.000606247
0.0460957
-1.34303
1.34895
-0.0519766
-3.8188e-05
-1.39083
0.201822
5.84255
-0.216695
-0.0108343
-1.49667
-1.42719
-1.50216
24.0465
-0.651548
-0.0810766
-5.88222
-6.16896
-5.78247
-6.16558
24.0806
-0.626106
-0.079341
24.109
-0.614848
-0.077689
24.1349
-0.607314
-0.0767915
24.1585
-0.60119
-0.0763184
24.1807
-0.596552
-0.0761115
24.202
-0.593152
-0.0761536
24.2227
-0.590516
-0.0762636
24.243
-0.588444
-0.0763649
24.2628
-0.586713
-0.0763622
24.2821
-0.585169
-0.076215
24.3009
-0.583818
-0.0758228
24.3191
-0.582527
-0.0752702
24.3367
-0.581251
-0.0744905
24.3535
-0.579913
-0.0736097
24.3699
-0.578692
-0.0727297
24.3857
-0.577271
-0.0719646
24.4008
-0.575385
-0.0714903
-0.572209
-0.071395
25.0047
-0.00148728
0.000450791
25.0099
0.0159292
0.00091736
25.0147
0.0366867
0.00140915
25.0186
0.0591668
0.00196058
25.0205
0.0880905
0.00255043
25.0256
0.121988
0.00323961
25.0377
0.16713
0.00388957
25.0639
0.231837
0.00433899
6.27433
0.333421
0.0043127
6.2821
6.27473
6.28446
-0.112192
6.28206
0.103951
0.000510075
-0.0447998
-1.57791
1.57958
0.0430737
5.26488e-05
-0.0845952
-1.59791
1.61274
-1.3452e-05
0.0697755
-0.0264095
-1.7122
1.7514
-0.000914638
0.0580653
-0.0216387
-0.026525
-0.0217651
0.0977606
-1.71302
1.68352
-0.000806416
-0.0674488
0.100596
-1.61002
-0.00155425
1.59958
-0.0885961
0.0769596
-1.58522
-0.00172664
1.58231
-0.0723248
0.0559789
-1.57766
1.5767
-0.0531956
-0.00183095
0.0567437
-1.57487
1.57303
-0.0530301
-0.00187363
0.0510191
-1.5725
1.57181
-0.0484652
-0.00186173
0.0472263
-1.57075
1.57023
-0.0448822
-0.00181758
-1.56786
0.176573
6.26503
-0.156594
-0.014885
-1.56737
-1.5675
-1.56739
25.0681
-0.535096
-0.109145
-6.26852
-6.26835
-6.26984
-6.2687
25.068
-0.517695
-0.108281
25.0645
-0.504115
-0.107213
25.0605
-0.496666
-0.106613
25.0572
-0.491378
-0.106531
25.0548
-0.487373
-0.106803
25.0532
-0.484132
-0.107419
25.052
-0.481144
-0.108209
25.0517
-0.478994
-0.109106
25.0518
-0.476768
-0.110016
25.052
-0.474505
-0.110919
25.0527
-0.47283
-0.111613
25.0534
-0.471036
-0.112245
25.0539
-0.469047
-0.112683
25.0547
-0.467683
-0.113055
25.0556
-0.466146
-0.113406
25.0566
-0.464502
-0.1138
25.058
-0.462436
-0.114335
-0.460103
-0.114935
25.0056
-0.00638388
0.000225362
25.0139
0.00714294
0.000481193
25.0268
0.0231057
0.000703793
25.038
0.0470566
0.000874893
25.0532
0.0718223
0.00094388
25.0767
0.0976179
0.000809661
25.1147
0.128694
0.000314186
25.1782
0.169201
-0.000974049
6.32056
0.231859
-0.00350301
6.31866
6.32489
6.31903
-0.0891004
6.33667
0.0736877
-0.000712337
-0.0333774
6.41315
0.0885723
-0.00151876
-0.0345959
-0.0335965
-0.0343078
-6.36433
-0.033721
6.51696
0.0770454
-0.00306395
-0.0264945
-0.033734
-0.0265487
-6.47044
-0.00791213
-6.54764
6.51428
-0.00412092
-0.00549544
0.0144272
-0.00823548
0.0447144
0.0446466
-6.53628
6.51473
-0.121206
-0.00850334
0.0384638
0.0353495
0.0328117
0.0542298
-6.45048
6.41306
-0.175085
-0.0108268
0.0548054
0.0566201
0.0576653
0.0555876
-6.37331
6.34138
-0.173137
-0.0123703
0.0543105
0.054588
0.05295
0.0458417
-6.32348
6.31244
-0.154954
-0.0134389
0.04491
0.0446661
0.0440163
0.0438617
-6.30387
6.29801
-0.154066
-0.0141006
0.0436365
0.0433783
0.043169
0.0408958
-6.29348
6.28796
-0.141404
-0.0144306
0.0403995
0.0403436
0.0397254
0.0379952
-6.28349
6.27781
-0.129537
-0.0145544
0.0375279
0.0374276
0.036826
0.140453
-6.27597
6.27378
-0.123578
-0.014683
25.0711
-0.402756
-0.120547
-6.27089
-6.27086
-6.27102
-6.27013
25.0613
-0.387585
-0.120299
25.0557
-0.378264
-0.120219
25.0515
-0.372147
-0.120331
25.0487
-0.367984
-0.120531
25.0467
-0.364703
-0.120734
25.0457
-0.362201
-0.120917
25.0457
-0.360042
-0.121063
25.046
-0.358128
-0.121153
25.0467
-0.356356
-0.121171
25.0478
-0.354453
-0.12114
25.0491
-0.353135
-0.121001
25.0502
-0.351371
-0.120763
25.052
-0.350261
-0.120525
25.0535
-0.348895
-0.120306
25.0549
-0.347392
-0.120139
25.0569
-0.346374
-0.120107
25.0599
-0.34515
-0.120297
-0.344128
-0.120759
25.0062
-0.0112229
7.87923e-05
25.0158
-0.00267356
0.000138303
25.0245
0.0142527
0.000118079
25.0409
0.0306046
-1.93446e-06
25.0675
0.0455707
-0.000376562
25.1009
0.065167
-0.00113983
25.1486
0.0833944
-0.00251722
25.2153
0.107238
-0.0049621
25.3245
0.13147
-0.00911883
25.4302
0.145882
-0.015861
-0.0613957
-0.0572078
-0.0591936
-0.0581564
25.5795
0.134286
-0.0260462
-0.061201
-0.0647943
-0.0629509
-0.0688354
25.715
0.0573276
-0.040395
-0.0428708
-0.0291112
-0.0472899
-0.0334519
25.5946
-0.153719
-0.0575743
0.0201232
0.122953
0.0181595
0.170267
25.5034
-0.235047
-0.0758894
0.08202
0.115652
0.0975177
0.106597
25.4355
-0.245716
-0.0910809
0.0815927
0.147005
0.0303187
0.145453
25.3503
-0.349648
-0.102106
0.133876
0.13679
0.132246
0.133875
25.2664
-0.319164
-0.109021
0.127581
0.131183
0.125107
0.128107
25.2
-0.329004
-0.113313
0.130566
0.12753
0.127107
0.123534
25.1561
-0.307879
-0.115948
0.120501
0.117378
0.116922
0.113011
25.1311
-0.289007
-0.117567
0.109948
0.109785
0.10512
0.106766
25.1103
-0.274841
-0.118523
0.105399
0.104779
0.10262
0.101371
25.0917
-0.265297
-0.118869
25.0799
-0.25655
-0.119191
25.0719
-0.250594
-0.119632
25.066
-0.246052
-0.120163
25.0614
-0.242838
-0.1206
25.0585
-0.2408
-0.121
25.0561
-0.238412
-0.121341
25.0547
-0.237011
-0.121612
25.0536
-0.235268
-0.12181
25.0533
-0.23412
-0.121926
25.0536
-0.232808
-0.121976
25.0538
-0.231288
-0.121976
25.0546
-0.230315
-0.121863
25.055
-0.22891
-0.121808
25.0557
-0.227825
-0.121752
25.0571
-0.227008
-0.121768
25.0588
-0.226206
-0.121913
25.0606
-0.224607
-0.12225
-0.223393
-0.12281
25.0064
-0.0157547
-5.38604e-05
25.0093
-0.00548257
-0.000110079
25.0168
0.00702342
-0.000288741
25.0361
0.0117807
-0.00059821
25.0614
0.0213739
-0.00125728
25.0908
0.0380772
-0.00243716
25.1388
0.039436
-0.00435729
25.2004
0.052754
-0.00740716
25.2802
0.0635262
-0.0122143
25.377
0.0680116
-0.0193255
25.4851
0.05493
-0.0292702
25.5667
0.0176656
-0.0424451
25.5455
-0.0753106
-0.0577217
25.5321
-0.1491
-0.0731604
25.41
-0.0376647
-0.086435
25.3278
-0.171151
-0.0966699
25.2776
-0.165812
-0.103467
25.2158
-0.159205
-0.108085
25.1702
-0.151258
-0.111067
25.1373
-0.143005
-0.113097
25.1127
-0.135726
-0.114531
25.0932
-0.130391
-0.115469
25.0791
-0.126089
-0.116267
25.0685
-0.123127
-0.116955
25.061
-0.120862
-0.1176
25.0556
-0.119382
-0.118051
25.0512
-0.118016
-0.118425
25.0486
-0.117116
-0.118695
25.047
-0.116585
-0.118783
25.0461
-0.115625
-0.118763
25.0458
-0.115213
-0.118621
25.0457
-0.114339
-0.118384
25.0465
-0.113979
-0.118038
25.047
-0.113201
-0.117659
25.0482
-0.112846
-0.117294
25.0494
-0.112065
-0.116949
25.0509
-0.111817
-0.116679
25.0526
-0.111357
-0.116548
25.0554
-0.110736
-0.116633
-0.111105
-0.11702
24.9867
-0.000106616
24.9814
-0.000185248
24.9888
-0.000448238
25.0012
-0.000785657
25.024
-0.00159871
25.0648
-0.00290163
25.1089
-0.00499626
25.1696
-0.00828142
25.2459
-0.0132916
25.3337
-0.0203698
25.4179
-0.0298799
25.4768
-0.0419607
25.4563
-0.0556104
25.3759
-0.0693354
25.419
-0.081445
25.3387
-0.0913623
25.2708
-0.0981987
25.2141
-0.10276
25.1686
-0.105851
25.1336
-0.108035
25.1075
-0.109669
25.088
-0.110882
25.0738
-0.111841
25.0633
-0.112599
25.0557
-0.113318
25.0502
-0.113872
25.0465
-0.114313
25.0441
-0.114685
25.0423
-0.11481
25.0415
-0.114846
25.0411
-0.114782
25.0413
-0.114571
25.0416
-0.114258
25.0424
-0.113924
25.0431
-0.113642
25.0445
-0.113373
25.0458
-0.113168
25.0475
-0.113097
25.0501
-0.113238
-0.11369
24.9959
0.00112256
0.00276687
24.9895
0.00389437
0.00563644
24.979
0.00653949
0.00894686
24.9633
0.00982956
0.0130152
24.9422
0.0129307
0.0181965
24.913
0.0180426
0.0249398
24.8711
0.0268346
0.0336521
24.8134
0.0374528
0.0447536
24.757
0.0297912
0.0585356
24.7194
0.00290521
0.0752673
24.6928
-0.0170767
0.0941665
24.6287
0.0101685
0.114599
24.6564
-0.0917965
0.135092
24.7745
-0.192034
0.154253
24.8085
-0.116376
0.170358
24.8344
-0.114885
0.182868
24.8589
-0.118835
0.192318
24.879
-0.118281
0.199669
24.8961
-0.118467
0.205518
24.9234
-0.131109
0.210307
24.9506
-0.132984
0.214202
24.9718
-0.128524
0.217573
24.9886
-0.125451
0.220555
25.0026
-0.123854
0.223198
25.0141
-0.12252
0.225523
25.0242
-0.121876
0.227529
25.0327
-0.121098
0.22921
25.0398
-0.12043
0.23056
25.0461
-0.120077
0.23162
25.0517
-0.11976
0.232422
25.0563
-0.119203
0.232967
25.0602
-0.118652
0.233288
25.064
-0.11862
0.233392
25.0676
-0.118594
0.233389
25.0708
-0.118093
0.233206
25.074
-0.118197
0.232964
25.0773
-0.118104
0.232506
25.0808
-0.118168
0.232017
25.0851
-0.118579
0.231304
-0.118939
0.229865
24.996
0.0023261
0.00269592
24.9896
0.0078432
0.00549416
24.9785
0.0137114
0.00873598
24.9628
0.0197654
0.0127454
24.9412
0.0264453
0.0178774
24.9137
0.0343123
0.0246028
24.8806
0.0447266
0.0333658
24.8377
0.0597807
0.0447
24.7743
0.0658225
0.0590863
24.6974
0.0436779
0.0768684
24.6526
-0.0187095
0.0976176
24.5888
0.015736
0.120517
24.6232
-0.195843
0.143573
24.756
-0.40529
0.164887
24.8385
-0.288281
0.182172
24.9084
-0.28111
0.19529
24.9601
-0.272429
0.205179
25.0014
-0.265412
0.212747
25.0472
-0.27333
0.218761
25.0799
-0.275223
0.223522
25.0993
-0.26566
0.227364
25.1132
-0.257318
0.230662
25.1226
-0.251082
0.23361
25.1296
-0.248316
0.236177
25.1353
-0.246589
0.238407
25.139
-0.244998
0.240333
25.1415
-0.243712
0.241991
25.1436
-0.243462
0.243391
25.1449
-0.242886
0.244547
25.1455
-0.242385
0.245463
25.146
-0.24217
0.24615
25.1466
-0.241972
0.24662
25.1465
-0.241548
0.246936
25.1463
-0.241645
0.24706
25.1467
-0.241813
0.247033
25.1468
-0.24159
0.246853
25.1474
-0.242031
0.246511
25.1487
-0.242671
0.246002
25.1503
-0.243002
0.245299
-0.243929
0.243804
24.996
0.00362949
0.00255271
24.9897
0.0117909
0.00521117
24.9787
0.0209146
0.00830943
24.9624
0.0305297
0.0121719
24.9397
0.0413129
0.0171677
24.9098
0.0532643
0.0237967
24.8717
0.0677634
0.0326074
24.8249
0.0858726
0.0442948
24.7586
0.103774
0.0596553
24.6628
0.101304
0.07938
24.5827
0.00669994
0.103619
-0.00276936
0.00753342
-0.00039813
24.7136
-0.0358339
0.13091
-0.0563177
-0.0336183
-0.0535598
24.5706
0.0237093
0.158237
-0.093025
0.0269956
-0.0891825
24.7341
-0.212502
0.183252
-0.122146
-0.208415
-0.117592
24.8272
-0.126758
0.201548
-0.119312
-0.122313
-0.114401
24.889
-0.116027
0.214599
-0.114373
-0.11169
-0.109422
24.9436
-0.113013
0.224306
-0.112298
-0.108432
-0.107394
25.0092
-0.115187
0.231719
-0.114093
-0.110573
-0.109272
25.052
-0.111935
0.237543
-0.110813
-0.10753
-0.106931
25.0788
-0.108909
0.242026
-0.107539
-0.105287
-0.103567
25.0985
-0.410302
0.245339
25.1125
-0.397877
0.248346
25.1219
-0.388175
0.251143
25.1285
-0.384411
0.254233
25.1332
-0.38205
0.25666
25.1362
-0.380075
0.258908
25.138
-0.378456
0.2603
25.1385
-0.377612
0.261648
25.1382
-0.377052
0.262728
25.1381
-0.37741
0.263574
25.1369
-0.376587
0.264202
25.1357
-0.376838
0.264637
25.135
-0.377037
0.264649
25.1337
-0.376915
0.26499
25.1323
-0.377219
0.264894
25.1314
-0.377554
0.264613
25.1308
-0.378179
0.264109
25.1305
-0.378955
0.263345
25.1313
-0.379922
0.262315
-0.380844
0.260464
24.9969
0.00467518
0.00233422
24.9908
0.0157173
0.00477848
24.98
0.0282092
0.0076392
24.9638
0.041529
0.0112342
24.9409
0.0568757
0.0159392
24.9079
0.0759666
0.022267
24.8629
0.0981807
0.0308973
24.8046
0.123895
0.0426794
24.7362
0.143606
0.0588195
6.14238
0.0386908
0.0808177
0.0544821
0.0393169
0.0552449
6.16239
6.14284
6.16222
-0.0116693
6.12491
0.0181846
0.0177144
-0.0153798
-6.11246
6.10014
-0.0314311
0.0233346
-0.0191496
-6.10365
6.09611
0.021308
0.0291042
-0.0227888
-6.11128
6.14346
-0.256552
0.0346681
-0.0253486
-6.16165
6.17591
-0.154255
0.0386126
-0.0269574
-6.18935
6.20047
-0.141277
0.0411008
-0.0281205
-6.21174
6.22626
-0.142394
0.0429495
-0.0290366
-6.23932
6.2467
-0.137994
0.0444146
-0.0297716
-6.25281
6.25825
-0.133198
0.045547
-0.0303412
-6.26231
6.26661
-0.129368
0.0464653
25.1113
-0.142809
0.266916
-0.143357
-0.144011
-0.142367
-6.27082
-6.27487
-6.27056
-6.27465
25.1202
-0.550632
0.269748
25.1244
-0.536503
0.271553
25.1268
-0.533079
0.27484
25.1266
-0.529886
0.277795
25.1238
-0.527275
0.280729
25.1202
-0.526068
0.282736
25.1153
-0.5252
0.284575
25.1094
-0.524655
0.28602
25.1026
-0.524803
0.287109
25.0957
-0.524557
0.287874
25.0884
-0.524838
0.288343
25.0808
-0.524781
0.288259
25.0734
-0.525168
0.28842
25.0659
-0.525487
0.287946
25.0588
-0.526098
0.287248
25.0517
-0.526242
0.286064
25.0451
-0.527007
0.284425
25.0401
-0.52852
0.282238
-0.529099
0.278933
24.9985
0.00421349
0.00203461
24.9935
0.0188326
0.00418594
24.984
0.0345285
0.00670159
24.9694
0.0515796
0.00987469
24.9473
0.0724677
0.0140552
24.915
0.0992227
0.0194746
24.866
0.134044
0.0275883
24.7927
0.178469
0.0385499
6.17328
0.229742
0.0541483
6.16602
6.17404
6.16639
-0.00798132
6.15794
0.0498716
0.0121587
-0.0112467
6.13172
0.0171881
-6.16071
0.0204955
0.0116563
0.020497
0.0115599
-0.0411673
-0.0152716
-6.07829
6.04427
0.023506
-0.00149293
0.00387437
-0.0017846
0.00411697
0.0210068
-0.0196606
-6.04231
6.0558
0.0304241
0.052322
-0.0402296
0.0518095
-0.0398155
-0.0485299
-0.0237605
-6.09616
6.13722
0.0367413
-0.0512116
-0.129059
-0.0517231
-0.128604
0.306365
-0.0254366
-6.16794
6.17936
0.0395137
-0.0502621
-0.0534785
-0.0504747
-0.0531658
0.181813
-0.0261839
-6.19306
6.20759
0.0407355
-0.0509647
-0.0501668
-0.0508991
-0.0502112
0.173126
-0.0268263
-6.22177
6.23398
0.0417946
-0.0488822
-0.0488236
-0.0487905
-0.048961
0.168169
-0.0274595
-6.24388
6.25133
0.0427322
-0.0457675
-0.0458842
-0.046021
-0.0459246
0.160758
-0.028067
-6.25808
6.26273
0.0435672
-0.0433871
-0.0436461
-0.0435523
-0.0435247
0.153872
-0.0285845
-6.26721
6.26975
0.0443169
-0.0414946
-0.0418004
-0.0414959
-0.0415717
0.148053
-6.27265
-0.0286593
6.27493
-0.161294
0.044853
25.065
-0.671913
0.26568
-6.27645
-6.27129
-6.27716
-6.27093
25.0385
-0.661066
0.26468
25.0088
-0.654271
0.26354
24.9776
-0.649505
0.262275
24.9469
-0.647344
0.261148
24.9165
-0.646432
0.260162
24.8874
-0.645978
0.258534
24.8597
-0.645891
0.257028
24.8328
-0.645938
0.2554
24.8076
-0.646136
0.253649
24.7839
-0.646466
0.251543
24.7615
-0.646804
0.249817
24.7403
-0.646986
0.247624
24.7206
-0.647395
0.245241
24.702
-0.647582
0.242596
24.6851
-0.647762
0.239532
24.6699
-0.648066
0.235888
24.6567
-0.649016
0.231514
-0.651377
0.225941
25.0021
0.000637527
0.00172086
24.9999
0.0194819
0.00346323
24.9922
0.0396098
0.00552002
24.9802
0.0598021
0.00810274
24.9627
0.0845544
0.0114825
24.9366
0.1181
0.0155412
24.8942
0.165644
0.0223381
24.8227
0.234767
0.0311141
6.17234
0.342089
0.043895
6.17148
6.17265
6.17162
-0.00634605
-0.0648894
6.14668
0.0870373
0.0098624
-0.00207547
-0.0195052
-1.52784
1.52255
0.0241195
0.00274601
-0.00303233
-0.0189482
-1.504
1.49142
0.0306662
0.00386852
-0.00425852
-1.4689
0.05237
1.47891
-0.0635944
0.00540943
-0.00533688
-1.52839
0.153541
1.5399
-0.166599
0.00682059
-0.00499414
-1.5365
0.059599
-0.0628342
1.53841
0.00629132
-1.54767
-0.00459925
0.0583561
-0.0618187
0.00522889
1.5505
-0.00421388
0.0553028
-1.55651
1.55806
-0.0573138
0.00466183
-0.00404016
0.0508169
-1.56138
1.56204
-0.0519722
0.00452467
-0.00404588
0.0478671
-1.56306
1.56326
-0.0486851
0.00466101
-0.0041679
0.0453674
-1.563
1.56271
-0.045834
0.00492413
-1.55709
-0.0165685
0.171347
6.17156
-0.154216
0.024565
-1.54227
-1.55659
-1.54074
23.8313
-0.777027
0.127249
-6.10934
-5.79865
-6.09357
-5.79715
23.8464
-0.752836
0.133909
23.8576
-0.743687
0.135494
23.8676
-0.73709
0.134208
23.8769
-0.732479
0.131485
23.8858
-0.728905
0.128048
23.8954
-0.725898
0.12355
23.9058
-0.723239
0.119009
23.917
-0.72087
0.114428
23.9289
-0.718686
0.109962
23.9416
-0.716634
0.10549
23.9545
-0.714772
0.101783
23.9678
-0.712968
0.098133
23.9811
-0.711207
0.0947799
23.9944
-0.709442
0.0916081
24.0075
-0.707625
0.0884585
24.0204
-0.705715
0.0850371
24.0328
-0.703662
0.0808156
-0.701279
0.0746833
25.0089
-0.000563901
0.00129248
25.0096
0.0175862
0.00262874
25.0061
0.0410976
0.00415407
24.9993
0.0637527
0.00601066
24.9893
0.0905331
0.00835455
24.9757
0.126678
0.0108922
24.9562
0.177574
0.015367
24.9258
0.254922
0.0205517
6.21365
0.381668
0.0276557
6.22201
6.21378
6.22246
-0.00385777
-0.105157
6.19814
0.118519
0.00601508
-0.00122192
-0.0394096
-1.54191
1.53575
0.0451757
0.0016085
-0.00180562
-0.082073
-1.50569
1.48726
0.100083
0.00220935
-0.000207251
0.00452427
-0.0748239
0.075063
-0.00477682
0.000220798
-0.00101112
-0.185536
0.00805138
-0.017808
-0.00212224
0.198428
-1.11899
0.000824781
0.0481722
-0.0729981
-0.00078682
1.14378
0.00217329
0.0412926
-1.20104
1.21425
-0.0549276
-0.00174731
0.00336351
0.0422449
-1.25274
1.26511
-0.0556429
-0.00233604
0.0039626
0.0408437
-1.29616
1.3054
-0.0512484
-0.00279411
0.00416197
0.040233
-1.32842
1.33658
-0.0493022
-0.00325891
-1.3823
0.0204682
0.17769
5.79721
-0.212826
-0.0237237
-1.49252
-1.39028
-1.49371
24.1419
-0.689729
-0.193415
-5.86113
-6.17007
-5.91322
-6.17239
24.1666
-0.663271
-0.193589
24.1926
-0.655126
-0.192317
24.2196
-0.649673
-0.19115
24.2461
-0.645257
-0.190011
24.2717
-0.641838
-0.188829
24.2965
-0.639172
-0.187636
24.3202
-0.636807
-0.186451
24.3429
-0.634611
-0.18526
24.3643
-0.632454
-0.184007
24.3846
-0.630489
-0.18264
24.4039
-0.628827
-0.181058
24.4223
-0.627367
-0.179287
24.4396
-0.625784
-0.177253
24.4558
-0.624223
-0.175032
24.4709
-0.62264
-0.172763
24.4849
-0.620954
-0.170774
24.4979
-0.618646
-0.169493
-0.614629
-0.169608
25.0081
-0.00544466
0.000870888
25.015
0.00986204
0.00176567
25.0215
0.0332849
0.00272577
25.0252
0.0581858
0.00380075
25.0243
0.0888503
0.00501276
25.0286
0.119418
0.00609496
25.0406
0.161637
0.00770001
25.0691
0.221828
0.00878929
6.27606
0.31211
0.00915532
6.28822
6.27765
6.29168
-0.00104916
-0.109989
6.28368
0.101802
0.0016054
-0.000210995
-0.044521
-1.57795
1.57971
0.0427206
0.00025476
-1.49039e-05
-0.0819848
-1.60031
1.61681
0.0655678
-5.68379e-05
0.000797047
-0.0263269
-1.71221
1.74988
0.0590806
-0.000122692
-0.021754
-0.0272335
-0.02205
0.00246959
0.109985
-1.7108
1.68019
-0.0783641
-0.00341292
0.105381
-1.61059
0.00362181
1.59962
-0.0932234
-0.00477259
0.00462548
0.0748121
-1.58449
-0.00594318
1.58218
-0.0711891
0.00521354
0.0543984
-1.57851
1.57688
-0.0512766
-0.00671368
0.00556721
0.0559869
-1.57573
1.5742
-0.0528916
-0.00713394
0.00581244
0.0501509
-1.57312
1.57239
-0.0478962
-0.00734254
0.00590797
0.0464748
-1.56941
1.56966
-0.0452681
-0.00737199
-1.56964
0.0244326
0.178664
6.27284
-0.157283
-0.0389368
-1.56981
-1.56978
-1.5705
25.0769
-0.533446
-0.245597
-6.27494
-6.269
-6.27899
-6.27375
25.0755
-0.525636
-0.244473
25.0718
-0.515316
-0.243326
25.0685
-0.509468
-0.243505
25.0658
-0.504621
-0.24443
25.0642
-0.501354
-0.245734
25.0633
-0.498368
-0.247272
25.0629
-0.49568
-0.24892
25.0629
-0.493136
-0.250562
25.0629
-0.490437
-0.252103
25.063
-0.48804
-0.25348
25.0635
-0.486048
-0.254875
25.0636
-0.484142
-0.255567
25.0632
-0.481818
-0.256268
25.0632
-0.480413
-0.256787
25.0631
-0.478628
-0.257301
25.0631
-0.476762
-0.257993
25.0633
-0.474208
-0.259064
-0.471424
-0.260451
25.0066
-0.00968853
0.000485376
25.0164
-0.000427236
0.000960063
25.0302
0.0187322
0.00138096
25.0383
0.0491442
0.00171735
25.0557
0.0704025
0.00186241
25.079
0.0950737
0.0016205
25.1168
0.123163
0.000637199
25.1822
0.156825
-0.00175123
6.32945
0.198699
-0.00672078
6.3183
6.33377
6.31691
-0.0864818
0.00134443
6.34777
0.0689115
-0.00211304
-0.0331877
0.00313494
6.42125
0.0891463
-0.00466573
-0.0314123
-0.0334579
-0.0306501
-6.38015
-0.0300652
0.00641104
6.49355
0.083661
-0.00957954
-0.02938
-0.0292336
-0.0317256
-6.45359
-0.00983421
0.0111852
-6.54218
6.50142
-0.056619
-0.0174955
0.0626154
-0.0110444
0.0621052
0.0348373
0.0177934
-6.49443
6.47612
-0.143679
-0.0270497
0.0514309
0.034245
0.0508488
0.0581804
-6.45258
0.0231589
6.40869
-0.18297
-0.0348585
0.0575787
0.0617041
0.0611046
0.0559661
0.0265056
-6.36839
6.34035
-0.176835
-0.039895
0.0539203
0.0551894
0.0531624
0.0454919
0.0285735
-6.32658
6.31961
-0.157761
-0.0430228
0.0447492
0.0448115
0.0441647
0.0441013
0.0297527
-6.3155
6.30767
-0.153094
-0.044813
0.0445896
0.0434444
0.0439296
0.0433525
0.0302437
-6.29895
6.2899
-0.142859
-0.0456658
0.0409011
0.0427801
0.0403483
0.0384792
0.0303478
-6.2823
6.27432
-0.126242
-0.0459274
0.0355569
0.0389998
0.0367986
0.137779
-6.27262
0.0302821
6.2727
-0.122298
-0.0458307
25.0722
-0.389058
-0.256524
-6.27095
-6.26932
-6.27127
-6.26903
25.0638
-0.382126
-0.255342
25.0585
-0.375427
-0.254802
25.0544
-0.37046
-0.255167
25.0519
-0.36699
-0.255688
25.05
-0.364008
-0.256148
25.0491
-0.361924
-0.256489
25.0491
-0.360064
-0.256678
25.0494
-0.357831
-0.256698
25.0505
-0.356166
-0.256555
25.0516
-0.354058
-0.256238
25.0531