/*--------------------------------*- C++ -*----------------------------------*\
| =========                 |                                                 |
| \\      /  F ield         | OpenFOAM: The Open Source CFD Toolbox           |
|  \\    /   O peration     | Version:  2306                                  |
|   \\  /    A nd           | Website:  www.openfoam.com                      |
|    \\/     M anipulation  |                                                 |
\*---------------------------------------------------------------------------*/
FoamFile
{
    version     2.0;
    format      ascii;
    arch        "LSB;label=32;scalar=64";
    class       volVectorField;
    location    "0.7";
    object      U;
}
// * * * * * * * * * * * * * * * * * * * * * * * * * * * * * * * * * * * * * //

dimensions      [0 1 -1 0 0 0 0];

internalField   nonuniform List<vector> 
111542
(
(99.9933 0.00523043 0.00292347)
(99.9711 0.0107179 0.00604905)
(99.9298 0.0164303 0.00950269)
(99.8682 0.0225116 0.0137548)
(99.7846 0.0286945 0.0191954)
(99.6769 0.034187 0.0262802)
(99.5441 0.0371092 0.0352805)
(99.3883 0.0344713 0.0466914)
(99.2188 0.0216166 0.0610056)
(99.0557 -0.00788837 0.0782142)
(98.9323 -0.059786 0.097815)
(98.8894 -0.131695 0.118809)
(98.9538 -0.205383 0.140005)
(99.1169 -0.261161 0.159349)
(99.3348 -0.288435 0.175401)
(99.5592 -0.296895 0.188099)
(99.763 -0.295472 0.197857)
(99.938 -0.288782 0.205589)
(100.083 -0.279838 0.211911)
(100.2 -0.270808 0.217325)
(100.293 -0.26308 0.221836)
(100.363 -0.256902 0.225723)
(100.416 -0.251975 0.229349)
(100.455 -0.248603 0.232541)
(100.485 -0.246567 0.235316)
(100.506 -0.245373 0.237847)
(100.523 -0.245062 0.239887)
(100.534 -0.245423 0.241454)
(100.541 -0.246077 0.242711)
(100.546 -0.246836 0.24367)
(100.549 -0.247618 0.244311)
(100.551 -0.24843 0.24459)
(100.553 -0.249107 0.244684)
(100.554 -0.249641 0.244641)
(100.556 -0.250089 0.244464)
(100.559 -0.250539 0.244144)
(100.563 -0.251119 0.243624)
(100.568 -0.25176 0.243054)
(100.577 -0.252543 0.242486)
(100.592 -0.253724 0.24203)
(99.9936 0.0155927 0.00286288)
(99.9717 0.0318913 0.00585492)
(99.9309 0.0492538 0.00927553)
(99.8697 0.0680297 0.0134891)
(99.7854 0.0875967 0.0188749)
(99.6744 0.105835 0.0258763)
(99.5334 0.117778 0.0349514)
(99.3617 0.114559 0.0466281)
(99.1655 0.0814994 0.0613944)
(98.9634 -0.00250604 0.0794321)
(98.797 -0.154874 0.100425)
(98.7329 -0.369207 0.122809)
(98.816 -0.592611 0.145713)
(99.0252 -0.752913 0.166696)
(99.2883 -0.83177 0.183759)
(99.5413 -0.859503 0.19676)
(99.7604 -0.858323 0.206659)
(99.943 -0.841274 0.21449)
(100.091 -0.817627 0.220887)
(100.208 -0.792943 0.226176)
(100.297 -0.770635 0.230509)
(100.365 -0.753164 0.234298)
(100.415 -0.74037 0.237768)
(100.452 -0.731522 0.240864)
(100.478 -0.724613 0.243553)
(100.498 -0.718494 0.245883)
(100.512 -0.713525 0.247847)
(100.522 -0.70979 0.249463)
(100.528 -0.706925 0.250771)
(100.532 -0.704698 0.251787)
(100.534 -0.703015 0.25252)
(100.535 -0.701859 0.252988)
(100.536 -0.701022 0.253242)
(100.537 -0.700481 0.253312)
(100.539 -0.700324 0.253207)
(100.541 -0.70068 0.252928)
(100.544 -0.701723 0.252471)
(100.549 -0.703375 0.251873)
(100.557 -0.705697 0.251184)
(100.57 -0.70879 0.250583)
(99.9939 0.0255991 0.00271309)
(99.9731 0.0524452 0.00554383)
(99.9338 0.0817827 0.00881555)
(99.874 0.114426 0.012871)
(99.7894 0.150062 0.0180947)
(99.6738 0.186313 0.024965)
(99.5194 0.216809 0.0340462)
(99.3184 0.227841 0.0459961)
(99.0681 0.192671 0.0615259)
(98.7856 0.0627179 0.0812316)
(98.5306 -0.271389 0.105368)
(98.4159 -0.733666 0.132432)
(98.5379 -1.1508 0.157518)
(98.8426 -1.38705 0.18031)
(99.1878 -1.48078 0.197877)
(99.4894 -1.50652 0.210447)
(99.7362 -1.48913 0.219742)
(99.9329 -1.45087 0.227078)
(100.086 -1.4065 0.233051)
(100.202 -1.3625 0.237786)
(100.289 -1.32367 0.241052)
(100.35 -1.28986 0.243877)
(100.395 -1.27064 0.246817)
(100.429 -1.26352 0.249598)
(100.455 -1.26065 0.251917)
(100.474 -1.25842 0.253712)
(100.486 -1.25649 0.255032)
(100.493 -1.2549 0.255947)
(100.496 -1.25343 0.256534)
(100.496 -1.25194 0.256865)
(100.495 -1.25037 0.25699)
(100.493 -1.24878 0.256941)
(100.49 -1.24718 0.256742)
(100.487 -1.24568 0.256403)
(100.485 -1.24442 0.25592)
(100.483 -1.24366 0.25528)
(100.482 -1.24361 0.254461)
(100.483 -1.24442 0.253459)
(100.486 -1.24614 0.252337)
(100.494 -1.24848 0.251381)
(99.9946 0.0348004 0.00248129)
(99.9758 0.071645 0.00507553)
(99.94 0.112859 0.00808952)
(99.8842 0.160426 0.0118547)
(99.8028 0.215483 0.016753)
(99.6861 0.277465 0.0232792)
(99.5195 0.342109 0.0320719)
(99.2821 0.396823 0.0439311)
(98.9448 0.411877 0.0598616)
(98.4431 0.212366 0.0811448)
(98.1842 0.0337303 0.0878395)
(97.8344 -0.621761 0.103073)
(97.8983 -1.42185 0.116107)
(98.3767 -1.93089 0.126789)
(98.8769 -2.0734 0.136652)
(99.2678 -2.09987 0.142688)
(99.5853 -2.06158 0.14658)
(99.8292 -1.99027 0.149378)
(100.012 -1.91305 0.151519)
(100.149 -1.8443 0.15311)
(100.325 -1.90203 0.245366)
(100.37 -1.83434 0.246537)
(100.388 -1.78517 0.248154)
(100.4 -1.75527 0.250031)
(100.411 -1.73596 0.251801)
(100.416 -1.72366 0.253251)
(100.414 -1.71665 0.254316)
(100.405 -1.71328 0.255042)
(100.391 -1.71224 0.255507)
(100.374 -1.71264 0.255752)
(100.355 -1.71385 0.255775)
(100.333 -1.71545 0.255552)
(100.311 -1.71716 0.255045)
(100.287 -1.71886 0.254224)
(100.264 -1.72058 0.253068)
(100.241 -1.72247 0.251564)
(100.219 -1.72483 0.249694)
(100.198 -1.72796 0.247455)
(100.179 -1.73196 0.244923)
(100.159 -1.73594 0.242509)
(99.9956 0.0424854 0.00216613)
(99.9803 0.0879315 0.00443885)
(99.9508 0.139972 0.00708258)
(99.9038 0.202327 0.0103943)
(99.8326 0.278738 0.0147239)
(99.7259 0.372882 0.0205304)
(99.5636 0.487563 0.0284408)
(99.3132 0.621502 0.0392712)
(98.8689 0.761414 0.0541076)
(98.5235 0.76995 0.0594255)
(97.7073 0.381966 0.0726521)
(96.9006 -0.68205 0.0890395)
(96.9965 -2.33063 0.101198)
(98.127 -2.9207 0.109088)
(98.8478 -2.92878 0.119005)
(99.306 -2.87688 0.124332)
(99.6658 -2.75783 0.128077)
(99.9141 -2.62285 0.131416)
(100.083 -2.49786 0.134057)
(100.191 -2.39728 0.135966)
(100.265 -2.35274 0.142931)
(100.227 -2.47171 0.236681)
(100.118 -2.46567 0.227905)
(100.01 -2.4396 0.218868)
(99.9087 -2.40661 0.210622)
(99.8093 -2.37645 0.203665)
(99.7099 -2.35109 0.198096)
(99.6118 -2.32994 0.193908)
(99.516 -2.31237 0.19097)
(99.423 -2.29785 0.189006)
(99.3333 -2.28576 0.187654)
(99.2474 -2.27547 0.186567)
(99.1656 -2.26642 0.185462)
(99.0882 -2.25821 0.184146)
(99.0152 -2.25063 0.182515)
(98.9466 -2.2437 0.180522)
(98.8826 -2.23765 0.178124)
(98.8235 -2.23305 0.175283)
(98.7709 -2.23099 0.171995)
(98.7197 -2.23378 0.168512)
(99.9971 0.0477496 0.00177931)
(99.9868 0.0992949 0.00364273)
(99.9668 0.159546 0.00580143)
(99.9343 0.234071 0.008488)
(99.8835 0.329687 0.0119691)
(99.8041 0.455701 0.0165933)
(99.6766 0.625819 0.0228374)
(99.4644 0.860463 0.031314)
(99.043 1.19129 0.0428003)
(98.6324 1.35503 0.047365)
(97.6747 1.49926 0.0456034)
(95.5608 0.729798 0.041898)
(94.3687 -3.41634 0.0541779)
(98.1984 -4.6854 0.0422725)
(98.7317 -3.83527 0.0648845)
(99.2692 -3.73602 0.0579193)
(99.6435 -3.52803 0.0486547)
(99.8141 -3.31255 0.0460854)
(99.8643 -3.12238 0.040233)
(99.8268 -2.93526 0.0231796)
(98.629 -2.73243 0.149568)
(95.4274 -2.20736 0.164055)
(95.4392 -2.27972 0.151086)
(95.469 -2.31615 0.136024)
(95.49 -2.33478 0.121829)
(95.5079 -2.34848 0.109831)
(95.529 -2.36082 0.100222)
(95.5549 -2.37245 0.0927261)
(95.5848 -2.38357 0.086863)
(95.6179 -2.39419 0.0820839)
(95.6537 -2.40403 0.077892)
(95.6916 -2.41266 0.0739187)
(95.7314 -2.41976 0.0699313)
(95.7728 -2.42513 0.0658187)
(95.8155 -2.42877 0.0615418)
(95.8594 -2.43088 0.0570856)
(95.9042 -2.43182 0.0524008)
(95.9497 -2.43228 0.0473767)
(95.9949 -2.43347 0.0418654)
(96.0464 -2.43818 0.0359697)
(99.9989 0.0497102 0.00137925)
(99.995 0.103722 0.00277952)
(99.9872 0.167789 0.00436165)
(99.9743 0.248733 0.00627657)
(99.9535 0.355553 0.00866745)
(99.9201 0.501842 0.0117004)
(99.8656 0.709718 0.0155571)
(99.7757 1.01791 0.0203767)
(99.6018 1.50012 0.0261632)
(99.3324 1.9029 0.0287514)
(98.6076 2.84366 0.0268068)
(95.4414 5.84051 0.0240405)
(77.101 -4.29904 0.0237761)
(102.741 -10.2863 0.0234332)
(60.0184 -5.71917 0.359914)
(76.4064 -4.82152 0.275991)
(80.0619 -3.94904 0.197353)
(82.7002 -3.5171 0.199648)
(84.5997 -3.22737 0.218726)
(86.0315 -3.03259 0.219056)
(93.1896 -3.73418 -0.0625927)
(96.0449 -3.14209 -0.166859)
(96.1942 -3.02205 -0.153749)
(96.3442 -2.93994 -0.141109)
(96.4629 -2.88077 -0.131705)
(96.5615 -2.83513 -0.125934)
(96.6523 -2.79898 -0.123469)
(96.7399 -2.76995 -0.123703)
(96.8253 -2.74618 -0.125846)
(96.9088 -2.72621 -0.129056)
(96.9903 -2.70892 -0.132595)
(97.0698 -2.69349 -0.135913)
(97.1471 -2.67935 -0.13868)
(97.2219 -2.66611 -0.140767)
(97.2942 -2.65352 -0.142204)
(97.364 -2.64139 -0.143138)
(97.4313 -2.62954 -0.143819)
(97.4963 -2.61769 -0.144547)
(97.5589 -2.60513 -0.145629)
(97.6326 -2.58986 -0.147138)
(100.001 0.0477996 0.000959845)
(100.004 0.0998991 0.00187641)
(100.01 0.162142 0.00285994)
(100.018 0.241457 0.00395672)
(100.032 0.347044 0.00516986)
(100.052 0.492576 0.00645441)
(100.086 0.699552 0.00766407)
(100.148 1.00389 0.00842487)
(100.293 1.46793 0.00793812)
(100.341 1.88103 0.00801017)
(100.612 2.87108 0.00498619)
(102.411 5.41645 0.000612515)
(111.11 4.03169 -0.0382199)
(109.086 -6.60152 0.0206734)
(102.823 -6.68032 -0.0434714)
(101.165 -4.902 -0.051152)
(100.719 -3.91841 -0.0486821)
(100.543 -3.3805 -0.0475376)
(100.452 -3.06458 -0.0460474)
(100.379 -2.87475 -0.0432675)
(100.279 -2.65973 -0.128452)
(100.286 -2.25781 -0.220542)
(100.262 -2.1633 -0.213693)
(100.244 -2.10882 -0.207551)
(100.23 -2.07848 -0.203375)
(100.217 -2.05919 -0.2012)
(100.206 -2.046 -0.200646)
(100.199 -2.03709 -0.201388)
(100.195 -2.03116 -0.203124)
(100.193 -2.0271 -0.20553)
(100.193 -2.02418 -0.208282)
(100.195 -2.02196 -0.211105)
(100.197 -2.02019 -0.213792)
(100.2 -2.01874 -0.216215)
(100.204 -2.01753 -0.218334)
(100.207 -2.01641 -0.220195)
(100.21 -2.01517 -0.221929)
(100.214 -2.01336 -0.223713)
(100.219 -2.01002 -0.225711)
(100.229 -2.00305 -0.227796)
(100.003 0.0419093 0.000502706)
(100.012 0.087655 0.000966712)
(100.03 0.142328 0.00139471)
(100.06 0.211864 0.00172139)
(100.104 0.303788 0.00183277)
(100.171 0.428286 0.00151699)
(100.274 0.59956 0.000380436)
(100.442 0.837123 -0.00227613)
(100.76 1.1654 -0.00773284)
(100.986 1.40653 -0.00961631)
(101.839 1.86744 -0.0161703)
(103.452 1.78095 -0.0279917)
(105.24 -0.209025 -0.0424333)
(104.798 -2.78694 -0.0239804)
(103.009 -3.5059 -0.0447951)
(101.799 -3.29056 -0.0618851)
(101.172 -2.94066 -0.0720076)
(100.834 -2.64533 -0.0778289)
(100.635 -2.42491 -0.0812665)
(100.5 -2.2621 -0.0834211)
(100.402 -2.13434 -0.0859249)
(100.293 -1.8642 -0.233835)
(100.254 -1.83266 -0.232921)
(100.225 -1.81068 -0.232606)
(100.206 -1.79654 -0.232877)
(100.193 -1.78607 -0.233513)
(100.184 -1.77686 -0.234292)
(100.179 -1.76816 -0.235106)
(100.177 -1.75969 -0.235908)
(100.178 -1.7512 -0.236655)
(100.18 -1.74261 -0.237306)
(100.184 -1.73395 -0.237831)
(100.189 -1.72533 -0.238214)
(100.194 -1.71685 -0.238463)
(100.2 -1.70855 -0.238618)
(100.206 -1.70045 -0.238754)
(100.212 -1.69244 -0.238982)
(100.219 -1.6843 -0.23944)
(100.229 -1.67583 -0.240288)
(100.247 -1.66711 -0.241714)
(100.004 0.0325371 0.00015846)
(100.019 0.0680494 0.000281946)
(100.047 0.110351 0.000243642)
(100.092 0.163735 -7.38638e-05)
(100.16 0.233212 -0.000860111)
(100.259 0.324591 -0.00244591)
(100.405 0.444108 -0.00536004)
(100.624 0.596161 -0.0104411)
(100.96 0.776887 -0.0190475)
(101.449 0.861875 -0.0328954)
(102.091 0.765889 -0.0536322)
(102.771 0.240633 -0.0821088)
(103.133 -0.743715 -0.114321)
(102.892 -1.57063 -0.143798)
(102.255 -1.87499 -0.173156)
(101.629 -1.87965 -0.195975)
(101.182 -1.79397 -0.21074)
(100.891 -1.69023 -0.219939)
(100.694 -1.59283 -0.225892)
(100.553 -1.50777 -0.229776)
(100.453 -1.43482 -0.232197)
(100.385 -1.37037 -0.233439)
(100.336 -1.32018 -0.234608)
(100.3 -1.28028 -0.235951)
(100.273 -1.24918 -0.237346)
(100.253 -1.22496 -0.238704)
(100.238 -1.20559 -0.239983)
(100.227 -1.18968 -0.241152)
(100.22 -1.1763 -0.242177)
(100.215 -1.16481 -0.243034)
(100.213 -1.15475 -0.243715)
(100.212 -1.14582 -0.244226)
(100.213 -1.13785 -0.244592)
(100.215 -1.1307 -0.24485)
(100.218 -1.12424 -0.245063)
(100.221 -1.11839 -0.245311)
(100.225 -1.11303 -0.245689)
(100.23 -1.10799 -0.246317)
(100.237 -1.10321 -0.247328)
(100.247 -1.09882 -0.248886)
(100.005 0.0205874 -0.000107908)
(100.024 0.0429637 -0.00027983)
(100.059 0.0696025 -0.000661533)
(100.114 0.102808 -0.00142057)
(100.196 0.145434 -0.00282648)
(100.312 0.199857 -0.00525256)
(100.476 0.267491 -0.0092715)
(100.705 0.34578 -0.0156688)
(101.016 0.421763 -0.0255208)
(101.418 0.456222 -0.0400438)
(101.886 0.393355 -0.0603012)
(102.32 0.158756 -0.0866617)
(102.547 -0.257767 -0.116663)
(102.436 -0.683521 -0.145761)
(102.053 -0.925803 -0.171867)
(101.598 -0.985119 -0.192187)
(101.22 -0.957209 -0.20649)
(100.944 -0.904522 -0.216036)
(100.745 -0.850484 -0.222565)
(100.596 -0.801796 -0.227164)
(100.484 -0.76101 -0.230448)
(100.401 -0.730761 -0.232846)
(100.338 -0.710752 -0.234858)
(100.291 -0.698232 -0.23666)
(100.256 -0.690898 -0.23826)
(100.23 -0.687153 -0.23964)
(100.212 -0.685599 -0.240785)
(100.199 -0.685183 -0.241669)
(100.19 -0.685266 -0.242265)
(100.185 -0.685488 -0.242564)
(100.183 -0.685635 -0.242579)
(100.183 -0.685618 -0.242343)
(100.184 -0.685417 -0.241904)
(100.186 -0.685095 -0.24133)
(100.19 -0.684422 -0.240733)
(100.194 -0.683569 -0.240183)
(100.2 -0.682568 -0.239778)
(100.206 -0.681394 -0.239642)
(100.215 -0.680036 -0.239945)
(100.233 -0.678397 -0.240978)
(100.006 0.00704464 -0.000264796)
(100.026 0.0146655 -0.000537742)
(100.064 0.0237627 -0.00112427)
(100.125 0.0349627 -0.00205631)
(100.213 0.0492869 -0.00379423)
(100.336 0.0672722 -0.00665001)
(100.506 0.0889038 -0.0112384)
(100.734 0.112683 -0.0182344)
(101.026 0.133499 -0.0287002)
(101.378 0.138765 -0.0433181)
(101.754 0.108669 -0.0626887)
(102.079 0.0227679 -0.0866485)
(102.249 -0.115724 -0.11356)
(102.188 -0.259422 -0.14048)
(101.92 -0.351053 -0.164082)
(101.562 -0.379882 -0.183048)
(101.228 -0.374616 -0.197146)
(100.963 -0.359598 -0.206936)
(100.764 -0.343926 -0.213853)
(100.611 -0.329844 -0.218907)
(100.494 -0.318017 -0.222745)
(100.406 -0.308801 -0.225754)
(100.34 -0.301533 -0.228218)
(100.292 -0.29539 -0.230248)
(100.256 -0.289655 -0.232029)
(100.229 -0.284036 -0.233563)
(100.21 -0.278376 -0.234814)
(100.197 -0.272599 -0.235757)
(100.188 -0.266724 -0.236379)
(100.182 -0.260823 -0.236683)
(100.179 -0.254986 -0.236692)
(100.178 -0.249296 -0.236444)
(100.179 -0.243845 -0.235984)
(100.18 -0.238741 -0.235336)
(100.183 -0.233825 -0.23479)
(100.187 -0.229249 -0.234309)
(100.192 -0.225066 -0.233965)
(100.198 -0.2213 -0.233887)
(100.206 -0.218071 -0.234249)
(100.218 -0.215875 -0.235376)
(99.9938 0.00517044 0.00847372)
(99.9724 0.0105253 0.0174499)
(99.9328 0.0162071 0.0276261)
(99.8737 0.0222538 0.0401477)
(99.7935 0.0283861 0.0561087)
(99.69 0.0338029 0.0767591)
(99.5622 0.0368051 0.103184)
(99.4125 0.0344333 0.136779)
(99.2498 0.0220257 0.178771)
(99.0932 -0.00668618 0.229309)
(98.9751 -0.0573048 0.287318)
(98.9353 -0.127823 0.349936)
(98.9993 -0.199484 0.41265)
(99.1581 -0.253301 0.469921)
(99.3691 -0.279483 0.51763)
(99.5856 -0.287536 0.555307)
(99.7814 -0.285882 0.584307)
(99.9486 -0.279005 0.606977)
(100.087 -0.269912 0.625105)
(100.197 -0.260977 0.640014)
(100.284 -0.253322 0.652241)
(100.35 -0.247163 0.662618)
(100.401 -0.242332 0.671941)
(100.439 -0.239007 0.680127)
(100.468 -0.237013 0.687182)
(100.491 -0.235987 0.693284)
(100.509 -0.235721 0.698159)
(100.523 -0.236006 0.701886)
(100.533 -0.23659 0.704716)
(100.541 -0.237277 0.706698)
(100.547 -0.237947 0.707834)
(100.551 -0.238547 0.708122)
(100.554 -0.239041 0.707834)
(100.557 -0.23944 0.707079)
(100.56 -0.239786 0.705893)
(100.563 -0.24016 0.704294)
(100.566 -0.240635 0.702238)
(100.571 -0.241259 0.699909)
(100.579 -0.242117 0.697332)
(100.592 -0.243388 0.694541)
(99.994 0.0153842 0.00827935)
(99.973 0.0313917 0.0169763)
(99.9339 0.0485785 0.0269911)
(99.8751 0.0671673 0.0393518)
(99.7941 0.0865316 0.055156)
(99.6873 0.104583 0.0756961)
(99.5516 0.116638 0.10238)
(99.3863 0.113981 0.136796)
(99.197 0.0821314 0.180401)
(99.0018 0.000540043 0.233917)
(98.8408 -0.147695 0.296556)
(98.7802 -0.355896 0.365547)
(98.8628 -0.574333 0.43498)
(99.0665 -0.73214 0.497672)
(99.3216 -0.809389 0.548223)
(99.5663 -0.837085 0.586771)
(99.7776 -0.836158 0.616005)
(99.9532 -0.81927 0.638767)
(100.095 -0.795767 0.656921)
(100.206 -0.77155 0.671514)
(100.291 -0.750206 0.683231)
(100.356 -0.733536 0.693378)
(100.404 -0.721182 0.702527)
(100.44 -0.712505 0.710486)
(100.467 -0.705838 0.717178)
(100.488 -0.700262 0.722788)
(100.503 -0.695859 0.727437)
(100.514 -0.692669 0.731229)
(100.522 -0.690402 0.734244)
(100.528 -0.688767 0.736507)
(100.533 -0.687588 0.738032)
(100.535 -0.686766 0.738856)
(100.538 -0.686218 0.739079)
(100.539 -0.685967 0.738768)
(100.541 -0.686098 0.737957)
(100.543 -0.686726 0.736657)
(100.545 -0.688003 0.734862)
(100.55 -0.690005 0.732598)
(100.556 -0.692764 0.729879)
(100.569 -0.696229 0.726808)
(99.9943 0.0252201 0.00784826)
(99.9743 0.0516745 0.0160984)
(99.9367 0.0806157 0.0256751)
(99.8792 0.112827 0.0375813)
(99.7979 0.148001 0.0529507)
(99.6866 0.18383 0.0731937)
(99.5377 0.214117 0.100021)
(99.3435 0.225425 0.135466)
(99.1011 0.191493 0.181721)
(98.827 0.0645682 0.240635)
(98.5792 -0.262465 0.312561)
(98.4674 -0.715479 0.393122)
(98.5859 -1.12417 0.473276)
(98.8826 -1.35701 0.543786)
(99.2182 -1.45077 0.597153)
(99.511 -1.47779 0.635364)
(99.7504 -1.46128 0.663406)
(99.9408 -1.42338 0.68505)
(100.088 -1.37912 0.702181)
(100.2 -1.3353 0.715515)
(100.283 -1.29787 0.724917)
(100.344 -1.26609 0.733429)
(100.389 -1.24783 0.742143)
(100.423 -1.24089 0.750025)
(100.449 -1.23791 0.756404)
(100.468 -1.2357 0.761405)
(100.481 -1.23404 0.765343)
(100.488 -1.23297 0.76842)
(100.492 -1.23222 0.770741)
(100.493 -1.23156 0.772362)
(100.492 -1.23088 0.773318)
(100.49 -1.23022 0.77364)
(100.487 -1.22961 0.773363)
(100.483 -1.22918 0.77251)
(100.48 -1.22912 0.771081)
(100.477 -1.22965 0.769046)
(100.475 -1.23104 0.766351)
(100.475 -1.23346 0.762937)
(100.477 -1.23695 0.758826)
(100.484 -1.24098 0.754353)
(99.9949 0.0342575 0.00718039)
(99.9769 0.070552 0.0147544)
(99.9427 0.111152 0.0235935)
(99.8892 0.157997 0.0346711)
(99.8109 0.212197 0.0491297)
(99.6984 0.273194 0.0684567)
(99.5375 0.336795 0.0946254)
(99.3074 0.390591 0.130176)
(98.979 0.405211 0.178322)
(98.4883 0.208558 0.242903)
(98.2297 0.0265599 0.275206)
(97.8844 -0.632314 0.34897)
(97.9489 -1.42858 0.426283)
(98.421 -1.94229 0.495303)
(98.9103 -2.09012 0.545021)
(99.2945 -2.12279 0.577176)
(99.6077 -2.08788 0.599166)
(99.8484 -2.01745 0.615587)
(100.028 -1.93986 0.628602)
(100.163 -1.87034 0.63904)
(100.33 -1.91581 0.759278)
(100.375 -1.85081 0.76613)
(100.393 -1.80461 0.772741)
(100.404 -1.7784 0.779407)
(100.412 -1.76293 0.786011)
(100.413 -1.75442 0.792253)
(100.406 -1.75114 0.797865)
(100.393 -1.75131 0.802688)
(100.374 -1.75347 0.806627)
(100.352 -1.75666 0.80961)
(100.328 -1.76033 0.811595)
(100.302 -1.76416 0.812556)
(100.275 -1.76799 0.81249)
(100.247 -1.77182 0.811386)
(100.219 -1.77574 0.809221)
(100.192 -1.77995 0.805939)
(100.165 -1.78474 0.801432)
(100.14 -1.79043 0.795553)
(100.118 -1.79718 0.788203)
(100.096 -1.80407 0.779623)
(99.9959 0.0417884 0.00626289)
(99.9813 0.086513 0.0129084)
(99.9531 0.137713 0.0206777)
(99.9081 0.199015 0.0304491)
(99.8398 0.274053 0.04328)
(99.7369 0.366385 0.0605889)
(99.5799 0.478683 0.0843548)
(99.3366 0.609535 0.117254)
(98.9022 0.745463 0.162831)
(98.5589 0.748853 0.188488)
(97.7508 0.359465 0.253066)
(96.9503 -0.701059 0.334154)
(97.0433 -2.33858 0.422994)
(98.1553 -2.93767 0.494625)
(98.8595 -2.95977 0.530772)
(99.3159 -2.92257 0.544363)
(99.6782 -2.81119 0.552683)
(99.9281 -2.67905 0.560904)
(100.098 -2.55527 0.569573)
(100.21 -2.45562 0.577962)
(100.286 -2.40256 0.580489)
(100.217 -2.57428 0.687672)
(100.095 -2.55885 0.690497)
(99.9718 -2.53163 0.687761)
(99.8559 -2.50254 0.684765)
(99.7408 -2.47903 0.682673)
(99.6258 -2.46154 0.681012)
(99.5131 -2.44844 0.679298)
(99.404 -2.43852 0.677228)
(99.2995 -2.43102 0.674594)
(99.1999 -2.42541 0.671269)
(99.1054 -2.42124 0.667196)
(99.0161 -2.41817 0.66236)
(98.9322 -2.41595 0.656758)
(98.8535 -2.41441 0.650364)
(98.7799 -2.41349 0.6431)
(98.7115 -2.41334 0.634754)
(98.6488 -2.41441 0.624983)
(98.5936 -2.41779 0.613351)
(98.5423 -2.42593 0.599754)
(99.9973 0.046967 0.00524571)
(99.9876 0.0976486 0.0106939)
(99.9687 0.156851 0.0170356)
(99.9376 0.230001 0.0249732)
(99.889 0.323717 0.0353287)
(99.8126 0.447039 0.0492124)
(99.6893 0.613262 0.0681738)
(99.4826 0.842205 0.0943387)
(99.0691 1.16456 0.13047)
(98.6612 1.32477 0.152088)
(97.7093 1.46393 0.181833)
(95.607 0.691147 0.235775)
(94.409 -3.44053 0.323807)
(98.2234 -4.70197 0.3957)
(98.7406 -3.83123 0.363387)
(99.2825 -3.71926 0.311378)
(99.6759 -3.50113 0.275759)
(99.8623 -3.27987 0.255734)
(99.9242 -3.09789 0.251079)
(99.8928 -2.93112 0.256966)
(98.8114 -2.69173 0.244094)
(95.1476 -2.57662 0.273226)
(95.2227 -2.63618 0.306823)
(95.2994 -2.66643 0.326244)
(95.356 -2.6845 0.338425)
(95.4001 -2.70026 0.345733)
(95.4412 -2.71474 0.348689)
(95.4835 -2.72727 0.347953)
(95.5282 -2.73783 0.344444)
(95.5757 -2.7467 0.339089)
(95.6257 -2.7542 0.332703)
(95.678 -2.76052 0.325957)
(95.7321 -2.76576 0.319278)
(95.7873 -2.76994 0.312917)
(95.843 -2.773 0.306924)
(95.8986 -2.77488 0.301129)
(95.9538 -2.77562 0.295074)
(96.0081 -2.77552 0.287946)
(96.0608 -2.77557 0.2784)
(96.1228 -2.77846 0.264097)
(99.999 0.0488782 0.00396777)
(99.9955 0.101951 0.0080842)
(99.9884 0.164851 0.0127758)
(99.9764 0.244218 0.0184769)
(99.9568 0.348793 0.0256485)
(99.925 0.491793 0.0348545)
(99.8726 0.694728 0.0467815)
(99.785 0.995411 0.0621005)
(99.6132 1.46601 0.0811187)
(99.3453 1.86269 0.0930144)
(98.6241 2.79185 0.107411)
(95.477 5.76825 0.138971)
(77.2277 -4.41668 0.228638)
(47.6574 -1.91747 -0.328383)
(71.6333 -3.67188 0.0526295)
(76.7526 -3.13839 0.0722514)
(80.4457 -2.9329 0.0145439)
(83.1216 -2.80845 -0.0543017)
(85.1469 -2.76025 -0.11263)
(92.3424 -3.50937 -0.26882)
(96.4437 -3.41568 -0.457197)
(96.556 -3.29771 -0.462795)
(96.689 -3.21629 -0.466252)
(96.8056 -3.15791 -0.469754)
(96.9121 -3.11273 -0.472877)
(97.0157 -3.07586 -0.475015)
(97.1173 -3.0447 -0.47593)
(97.2155 -3.01765 -0.475562)
(97.3097 -2.99369 -0.473915)
(97.3995 -2.97219 -0.471026)
(97.4849 -2.95274 -0.466943)
(97.566 -2.93503 -0.461725)
(97.6426 -2.91881 -0.455484)
(97.7147 -2.9038 -0.448417)
(97.7823 -2.88971 -0.440871)
(97.8453 -2.87619 -0.43345)
(97.9039 -2.8627 -0.427055)
(97.9585 -2.84832 -0.423)
(98.0215 -2.83079 -0.422939)
(100.001 0.0469073 0.00268801)
(100.004 0.0980794 0.0054105)
(100.01 0.159172 0.00835359)
(100.019 0.23691 0.0116451)
(100.033 0.340233 0.015331)
(100.053 0.482424 0.0193443)
(100.086 0.684429 0.0233428)
(100.147 0.981356 0.026357)
(100.288 1.43437 0.0260609)
(100.335 1.84106 0.0256238)
(100.603 2.81781 0.018844)
(102.4 5.33147 0.00091681)
(110.971 4.00158 -0.00843055)
(109.011 -6.50672 -0.166204)
(102.809 -6.67532 -0.248107)
(101.168 -4.88392 -0.31982)
(100.719 -3.90496 -0.364792)
(100.537 -3.37437 -0.390575)
(100.441 -3.06338 -0.404266)
(100.364 -2.87794 -0.409555)
(100.254 -2.7068 -0.47818)
(100.265 -2.35118 -0.659461)
(100.245 -2.25274 -0.656148)
(100.231 -2.19914 -0.650748)
(100.221 -2.17165 -0.647803)
(100.212 -2.15582 -0.647825)
(100.207 -2.1458 -0.650026)
(100.205 -2.13923 -0.653681)
(100.205 -2.13459 -0.658182)
(100.207 -2.13087 -0.66297)
(100.209 -2.12757 -0.667586)
(100.212 -2.12452 -0.671697)
(100.215 -2.12172 -0.675096)
(100.217 -2.11924 -0.677671)
(100.219 -2.11711 -0.679492)
(100.22 -2.11526 -0.680769)
(100.22 -2.11345 -0.681912)
(100.22 -2.11115 -0.683504)
(100.222 -2.1073 -0.686221)
(100.23 -2.09992 -0.690287)
(100.003 0.0410977 0.00145305)
(100.012 0.0860513 0.00288088)
(100.03 0.139702 0.00418027)
(100.059 0.207836 0.0051996)
(100.102 0.297766 0.00562042)
(100.168 0.419372 0.00484472)
(100.269 0.586497 0.0017654)
(100.433 0.818156 -0.00563148)
(100.744 1.13809 -0.0210956)
(100.968 1.37452 -0.0310906)
(101.808 1.82509 -0.0655121)
(103.405 1.72729 -0.130399)
(105.168 -0.249614 -0.227952)
(104.723 -2.79544 -0.345861)
(102.964 -3.52197 -0.441371)
(101.769 -3.30541 -0.50681)
(101.153 -2.95819 -0.546185)
(100.823 -2.66677 -0.567807)
(100.63 -2.45014 -0.579087)
(100.498 -2.29141 -0.584153)
(100.401 -2.16523 -0.583787)
(100.297 -1.88418 -0.732075)
(100.257 -1.8554 -0.729835)
(100.228 -1.83618 -0.728316)
(100.209 -1.82368 -0.727952)
(100.197 -1.81373 -0.728403)
(100.188 -1.80426 -0.729228)
(100.184 -1.79471 -0.730104)
(100.182 -1.78487 -0.730791)
(100.183 -1.77466 -0.731102)
(100.185 -1.76409 -0.730926)
(100.189 -1.75334 -0.730221)
(100.194 -1.74261 -0.729021)
(100.199 -1.73211 -0.727408)
(100.205 -1.72195 -0.72557)
(100.21 -1.71213 -0.723771)
(100.216 -1.70256 -0.722374)
(100.222 -1.69297 -0.721836)
(100.231 -1.68314 -0.722675)
(100.247 -1.67349 -0.725361)
(100.004 0.0319186 0.000439799)
(100.019 0.0667876 0.00077055)
(100.046 0.108282 0.00069979)
(100.091 0.160608 -0.00014601)
(100.156 0.228552 -0.00235862)
(100.253 0.31779 -0.00688341)
(100.396 0.434368 -0.0152375)
(100.61 0.582501 -0.0298697)
(100.937 0.758211 -0.0547482)
(101.414 0.840704 -0.0954217)
(102.042 0.745909 -0.157428)
(102.707 0.230382 -0.244712)
(103.06 -0.730086 -0.349934)
(102.82 -1.54112 -0.461662)
(102.196 -1.84099 -0.554969)
(101.587 -1.84436 -0.620181)
(101.156 -1.75968 -0.661153)
(100.877 -1.65817 -0.686097)
(100.688 -1.56333 -0.70155)
(100.554 -1.48096 -0.710965)
(100.459 -1.41085 -0.716098)
(100.393 -1.34955 -0.717782)
(100.345 -1.30165 -0.719637)
(100.308 -1.26329 -0.721996)
(100.281 -1.23304 -0.724259)
(100.26 -1.20924 -0.726244)
(100.244 -1.19006 -0.728)
(100.232 -1.17418 -0.729519)
(100.223 -1.16069 -0.730722)
(100.217 -1.14895 -0.731531)
(100.213 -1.1385 -0.731908)
(100.211 -1.12909 -0.731861)
(100.211 -1.12056 -0.731453)
(100.212 -1.11284 -0.730785)
(100.215 -1.10584 -0.730033)
(100.218 -1.09948 -0.729422)
(100.222 -1.09361 -0.729234)
(100.227 -1.08808 -0.729807)
(100.234 -1.08282 -0.731501)
(100.244 -1.07807 -0.734574)
(100.005 0.0201619 -0.000305031)
(100.023 0.0421537 -0.000763453)
(100.058 0.0682731 -0.00180494)
(100.112 0.10088 -0.00393955)
(100.191 0.142537 -0.00796435)
(100.305 0.19569 -0.0149518)
(100.465 0.261689 -0.0265322)
(100.687 0.338065 -0.0450389)
(100.99 0.412043 -0.0736476)
(101.381 0.445592 -0.116154)
(101.836 0.383958 -0.176037)
(102.258 0.154004 -0.254433)
(102.479 -0.254878 -0.346058)
(102.371 -0.671025 -0.438873)
(101.997 -0.905196 -0.519563)
(101.556 -0.960947 -0.57977)
(101.192 -0.932371 -0.620544)
(100.928 -0.880389 -0.647399)
(100.738 -0.827517 -0.665439)
(100.597 -0.780266 -0.677744)
(100.491 -0.741206 -0.686071)
(100.411 -0.713013 -0.691718)
(100.351 -0.694573 -0.696282)
(100.305 -0.683002 -0.700192)
(100.27 -0.67631 -0.703357)
(100.244 -0.672981 -0.705759)
(100.224 -0.671626 -0.707454)
(100.208 -0.671199 -0.708461)
(100.197 -0.671081 -0.708764)
(100.19 -0.670942 -0.708366)
(100.185 -0.670597 -0.707311)
(100.182 -0.669989 -0.705688)
(100.182 -0.669116 -0.70363)
(100.183 -0.668033 -0.701308)
(100.186 -0.666736 -0.698975)
(100.19 -0.665282 -0.696848)
(100.195 -0.663675 -0.69519)
(100.202 -0.661913 -0.694328)
(100.211 -0.660016 -0.694645)
(100.228 -0.65807 -0.696616)
(100.006 0.00688651 -0.000718418)
(100.025 0.0144069 -0.00155308)
(100.063 0.0232953 -0.00312995)
(100.122 0.0343132 -0.00586497)
(100.208 0.0482597 -0.0108319)
(100.328 0.0657867 -0.0189948)
(100.493 0.0868801 -0.0320057)
(100.715 0.110087 -0.0520491)
(100.999 0.130299 -0.0820032)
(101.34 0.135468 -0.124437)
(101.705 0.106272 -0.181399)
(102.021 0.0228338 -0.252564)
(102.186 -0.111804 -0.333329)
(102.127 -0.251512 -0.414659)
(101.867 -0.339769 -0.486607)
(101.521 -0.367275 -0.543143)
(101.2 -0.361887 -0.583544)
(100.948 -0.347133 -0.611242)
(100.759 -0.331882 -0.630488)
(100.615 -0.318298 -0.644167)
(100.505 -0.307073 -0.654069)
(100.421 -0.298516 -0.661387)
(100.358 -0.291747 -0.667096)
(100.311 -0.28588 -0.671739)
(100.275 -0.280369 -0.675637)
(100.247 -0.274942 -0.678777)
(100.225 -0.269419 -0.681117)
(100.209 -0.263724 -0.682656)
(100.196 -0.257891 -0.683409)
(100.187 -0.252005 -0.683412)
(100.18 -0.246162 -0.682734)
(100.176 -0.240456 -0.681481)
(100.175 -0.234973 -0.679788)
(100.175 -0.229781 -0.677783)
(100.177 -0.224898 -0.675923)
(100.18 -0.220374 -0.674284)
(100.185 -0.216235 -0.67308)
(100.192 -0.21251 -0.672627)
(100.2 -0.209327 -0.673288)
(100.213 -0.207214 -0.675517)
(99.9942 0.00503698 0.0132701)
(99.9745 0.0102467 0.0272963)
(99.9378 0.0158013 0.0434868)
(99.883 0.0217269 0.0634231)
(99.8087 0.0277602 0.0887993)
(99.7128 0.0331581 0.121598)
(99.5946 0.0363528 0.163911)
(99.4563 0.034551 0.218011)
(99.3061 0.0233398 0.285862)
(99.162 -0.00318342 0.368174)
(99.0542 -0.0505392 0.46351)
(99.0195 -0.116186 0.567244)
(99.0815 -0.183207 0.671258)
(99.2318 -0.233394 0.76679)
(99.4301 -0.257677 0.846877)
(99.6326 -0.265024 0.910238)
(99.815 -0.263086 0.959127)
(99.9701 -0.256022 0.997002)
(100.097 -0.246795 1.02677)
(100.199 -0.237894 1.05056)
(100.278 -0.23036 1.06983)
(100.339 -0.224139 1.086)
(100.386 -0.219166 1.10028)
(100.422 -0.215822 1.11316)
(100.45 -0.213969 1.12465)
(100.473 -0.213104 1.13461)
(100.492 -0.212858 1.14294)
(100.507 -0.212996 1.1497)
(100.52 -0.213311 1.15506)
(100.53 -0.21363 1.15914)
(100.539 -0.213852 1.16205)
(100.546 -0.213948 1.16392)
(100.551 -0.213922 1.16495)
(100.555 -0.213814 1.16527)
(100.559 -0.213677 1.16496)
(100.561 -0.213606 1.16406)
(100.564 -0.213697 1.16257)
(100.568 -0.214035 1.16047)
(100.574 -0.21472 1.1576)
(100.585 -0.21593 1.15369)
(99.9944 0.0149702 0.0129481)
(99.9751 0.030548 0.026639)
(99.9389 0.0473187 0.0425145)
(99.8844 0.0654908 0.0621582)
(99.8094 0.0844836 0.0873189)
(99.7104 0.10236 0.120122)
(99.5847 0.114753 0.16299)
(99.4315 0.113435 0.218662)
(99.2561 0.0846812 0.289787)
(99.0752 0.00901681 0.378045)