/*--------------------------------*- C++ -*----------------------------------*\
| =========                 |                                                 |
| \\      /  F ield         | OpenFOAM: The Open Source CFD Toolbox           |
|  \\    /   O peration     | Version:  2306                                  |
|   \\  /    A nd           | Website:  www.openfoam.com                      |
|    \\/     M anipulation  |                                                 |
\*---------------------------------------------------------------------------*/
FoamFile
{
    version     2.0;
    format      ascii;
    arch        "LSB;label=32;scalar=64";
    class       volVectorField;
    location    "0.45";
    object      Force;
}
// * * * * * * * * * * * * * * * * * * * * * * * * * * * * * * * * * * * * * //

dimensions      [1 1 -2 0 0 0 0];

internalField   uniform (0 0 0);

boundaryField
{
    walls
    {
        type            calculated;
        value           uniform (0 0 0);
    }
    inlet
    {
        type            calculated;
        value           uniform (0 0 0);
    }
    outlet
    {
        type            calculated;
        value           uniform (0 0 0);
    }
    NASA
    {
        type            calculated;
        value           nonuniform List<vector> 
14179
(
(-0.0146574 -0.134777 8.81662e-07)
(-0.0131184 -0.108423 2.54935e-07)
(-0.0667621 -0.540054 9.42148e-05)
(-0.10098 -0.811684 0.000359218)
(-0.0664533 -0.537961 4.79403e-05)
(-0.109244 -0.87802 0.000441418)
(0.214396 0.930832 -1.66195e-05)
(0.0907521 0.45561 -3.23675e-05)
(0.642677 3.15092 0.00466276)
(0.098942 0.496738 -3.62565e-05)
(-0.000776367 -0.00923004 1.29441e-06)
(-0.0177504 -0.14505 0.000108234)
(0.130552 0.651664 -0.000267391)
(-0.0353807 -0.321566 0.000358507)
(0.0618561 0.308631 -0.000110191)
(1.37727 0.929027 0.00280332)
(1.38641 0.918637 -0.000151386)
(0.0220404 0.123564 -9.30208e-06)
(0.15679 0.930503 -7.32216e-05)
(1.28399 0.850947 0.000245734)
(-0.0172434 -0.24122 -1.83086e-05)
(-0.0214819 -0.199715 -0.00014977)
(-0.0197168 -0.2737 -0.000269496)
(-0.00878524 -0.0639601 1.88117e-07)
(-0.0133025 -0.110004 5.24168e-06)
(-0.00949415 -0.0691172 7.28268e-06)
(-0.0129376 -0.106498 0.000150011)
(-0.0150778 -0.108014 0.000157666)
(-0.0133128 -0.121512 0.000173549)
(-0.0156264 -0.21424 0.00331895)
(0.046837 0.204528 4.08376e-05)
(0.0526587 0.248273 1.16778e-05)
(0.0566075 0.266898 -4.79266e-05)
(0.0461872 0.201196 -1.44334e-05)
(0.0672361 0.24668 -2.47321e-05)
(0.0697953 0.255943 -3.93297e-05)
(0.0375892 0.136419 -1.53445e-05)
(0.0372715 0.135186 -2.67093e-05)
(-0.00176909 -0.00857594 0.000127136)
(-0.0129553 -0.0630307 0.000544907)
(0.169382 0.618371 -1.50499e-06)
(0.0991804 0.357438 0.000343401)
(0.0985002 0.494384 9.22259e-07)
(-0.00608457 -0.042745 1.75452e-06)
(-0.00553958 -0.0389205 -7.5118e-06)
(0.159261 0.79993 -5.8843e-07)
(-0.00973544 -0.0673238 0.000132)
(0.0970034 0.484017 0.000196905)
(0.0901761 0.450347 7.3908e-05)
(0.10762 0.439678 -0.000299913)
(0.0843638 0.313603 -1.29506e-05)
(0.0840364 0.312365 -1.48472e-05)
(-0.0624308 1.52547 -8.66143e-05)
(1.38592 0.92135 -0.000705361)
(-0.0592554 1.45636 8.43693e-05)
(-0.00254897 1.2798 -5.53627e-05)
(0.05254 0.79511 3.88606e-05)
(0.0599361 0.905144 -5.58898e-05)
(-0.0023149 1.14134 4.58727e-06)
(0.0894712 0.351694 -4.19581e-05)
(0.155516 0.922427 -4.008e-05)
(0.00804193 0.0292704 8.33771e-05)
(-0.0227709 0.566482 0.000148747)
(0.928742 0.633556 0.0786527)
(-0.000692316 0.532655 -0.000153731)
(0.0270281 0.410345 1.99165e-06)
(0.127381 0.745138 0.00819834)
(-0.0147797 -0.147852 2.81881e-06)
(-0.0145983 -0.134315 6.02683e-07)
(-0.0994427 -0.799438 0.000350739)
(-0.0115828 -0.0918324 8.84714e-07)
(-0.0130959 -0.108243 4.43826e-07)
(1.32884 0.879642 -0.000397454)
(1.28174 0.848729 -0.000167832)
(0.346019 2.05028 -0.00125652)
(0.260753 1.53962 -0.000655044)
(-0.110498 -0.889222 -0.00103541)
(-0.0559711 -0.348208 0.000205557)
(-0.0550266 -0.344433 0.00018211)
(-0.0419617 -0.246111 0.000168385)
(0.156788 0.676275 -0.000366169)
(0.175982 0.760514 -0.000389383)
(0.761728 1.3078 -5.99077e-05)
(0.762145 1.30651 -0.00033827)
(0.0905463 0.454419 -6.16945e-06)
(0.0809175 0.388789 -1.95098e-05)
(-0.000390838 -0.003902 -9.5173e-07)
(0.00133916 0.00663618 7.43812e-08)
(0.00137238 0.00682552 -1.31297e-06)
(-0.00038139 -0.00383646 1.51007e-07)
(0.0996549 0.500213 9.89801e-06)
(0.0961917 0.496208 -2.51376e-05)
(-0.0200006 -0.163365 0.000113052)
(-0.0134069 -0.09597 8.23852e-05)
(-0.0202176 -0.144303 9.91832e-05)
(-0.0122283 -0.0842413 7.84416e-05)
(-0.0179767 -0.123216 4.27192e-05)
(0.085581 0.426833 -0.000254786)
(-0.0199967 -0.181797 0.000109353)
(-0.0245868 -0.337927 0.00052216)
(-0.0208097 -0.292083 -0.000403566)
(0.0802739 0.400727 -0.000210126)
(1.37429 0.922919 -0.00270997)
(0.0978257 0.576776 -2.03687e-05)
(0.106381 0.595045 -9.69118e-06)
(0.107934 0.603445 -1.74992e-05)
(0.190376 1.32559 -4.57383e-05)
(0.102067 0.605477 -1.6739e-05)
(0.156818 0.930437 -2.44455e-05)
(0.0177481 0.0167469 1.34491e-05)
(0.334969 -0.123434 0.00336346)
(0.346862 -0.137512 0.00163684)
(0.00707214 0.00674135 -1.84535e-05)
(-0.00625304 -0.0269107 9.01656e-05)
(0.02211 0.0814847 1.48143e-05)
(0.00285202 0.00991423 6.75958e-05)
(0.0224764 0.0904429 0.000109234)
(-0.00913818 -0.0407985 4.24052e-05)
(-0.00138533 -0.00822562 8.49551e-05)
(0.00463769 0.0193938 3.74468e-05)
(-0.0178507 -0.0863247 5.36783e-05)
(-0.0010049 0.729316 -0.000249826)
(0.0407233 0.607448 -0.000255113)
(-0.00147272 0.97683 -0.000376958)
(0.0317931 0.480773 -0.000525413)
(-0.0345585 0.86567 -0.000508316)
(1.10892 0.745841 -0.000134608)
(-0.0468206 1.16054 -0.00043406)
(0.109714 0.648917 -0.00128333)
(0.156463 0.612481 -0.000534788)
(0.1177 0.460137 -0.000151305)
(0.108478 0.395698 -0.000105807)
(0.153456 0.560455 -0.000173483)
(0.0631402 0.227732 -5.81967e-05)
(0.0862973 0.311778 -0.000161633)
(-0.0133242 -0.150091 -5.55027e-06)
(-0.0171251 -0.23925 -1.93685e-06)
(-0.0106292 -0.0818541 9.2085e-07)
(-0.00863321 -0.0628554 -3.8617e-07)
(0.000285212 0.000137118 0.532773)
(-0.0129616 -0.10193 0.00014751)
(0.000259107 0.000133175 0.506524)
(-0.0144027 -0.109684 0.000165501)
(0.000542685 0.000297712 0.576797)
(-0.0130408 -0.130097 0.000253497)
(0.000764404 0.00074892 0.577914)
(-0.0121484 -0.139746 0.00105936)
(0.0524428 0.247248 -9.84547e-06)
(0.0391232 0.177926 -2.21761e-06)
(0.0394335 0.179355 -6.93233e-06)
(0.0464118 0.202129 -4.52141e-06)
(0.0456705 0.201172 -4.55869e-06)
(0.0459078 0.202221 -6.84715e-06)
(0.0691661 0.253709 -3.54897e-05)
(0.0239659 0.119193 -5.28972e-06)
(0.0214104 0.108621 -4.40344e-06)
(0.03865 0.140252 -2.25522e-05)
(0.0349571 0.123027 -1.50589e-05)
(-0.00622345 -0.0285192 0.000189551)
(-0.00531728 -0.025353 0.000221078)
(0.000233718 8.01304e-05 0.321904)
(0.000240586 6.02631e-05 0.315155)
(0.000233986 5.64883e-05 0.311173)
(0.000277475 8.07784e-05 0.358157)
(0.0937944 0.319503 0.000548761)
(0.159824 0.558663 0.0042869)
(-4.31641e-05 0.00016652 0.337983)
(0.000173208 -0.00019774 0.306208)
(0.000119586 4.27386e-05 0.108733)
(0.0818693 0.287326 0.000296727)
(0.284596 0.661118 -1.29541e-07)
(0.167425 0.590233 6.81922e-05)
(0.165749 0.584355 -1.1334e-05)
(0.0726975 0.339542 -1.66693e-05)
(0.0717473 0.335109 -1.10948e-05)
(0.122671 0.586013 -2.86651e-05)
(0.072349 0.322221 -1.35995e-05)
(0.0748346 0.33969 -1.37606e-05)
(0.0745163 0.338193 -1.32069e-05)
(0.0721147 0.321257 -9.43842e-06)
(-0.00492451 -0.0345743 -1.07028e-06)
(-0.00600967 -0.0422225 -1.36806e-06)
(0.15512 0.821902 -1.66227e-05)
(0.269567 0.464798 0.0117019)
(0.00052066 0.00204867 0.867019)
(0.000347557 0.000839919 0.413944)
(0.0492602 0.14325 0.000225282)
(-0.0118012 -0.07359 0.000194103)
(-0.0118433 -0.0747235 0.000337532)
(0.000612021 0.000758412 0.677549)
(0.000178098 -0.000176641 0.311093)
(0.0960917 0.492993 0.00118034)
(0.000311894 -0.000298628 0.37463)
(0.139766 0.734263 0.00571084)
(0.000364823 0.000198661 0.347597)
(0.000222948 6.08843e-05 0.329515)
(-0.000531723 -0.000299399 0.352547)
(6.81332e-05 0.000128157 0.11267)
(0.0803928 0.383964 3.18422e-05)
(0.102988 0.478265 0.00107637)
(0.000337404 -9.67886e-05 0.206367)
(9.28578e-05 0.00023605 0.108076)
(0.169179 0.710728 0.00223793)
(0.0843911 0.313691 -8.76999e-06)
(0.0803766 0.307682 -1.71552e-05)
(0.0958646 0.390789 -1.64644e-05)
(0.0672804 0.270974 -4.1228e-06)
(-0.870408 2.78275 -0.0213803)
(-0.0606374 1.48592 -5.11499e-05)
(-0.189497 1.77132 0.000762892)
(0.0549595 0.829819 -3.92763e-05)
(0.0409671 0.876798 -2.78685e-05)
(-0.00240309 1.19669 -1.05911e-05)
(0.0253111 0.957102 -1.39727e-05)
(0.0932691 1.02395 -2.95621e-05)
(0.105611 1.3643 -4.56306e-05)
(0.1098 1.41758 -3.10157e-05)
(0.0904661 0.993791 -5.15727e-05)
(0.114702 1.17193 -5.03279e-05)
(0.127003 1.18206 6.59433e-06)
(0.130216 1.21213 -7.94502e-05)
(0.111632 1.14044 2.97206e-06)
(0.0654784 0.271404 -1.54773e-05)
(0.0580633 0.23047 -1.56912e-05)
(0.0898148 0.353008 -2.23487e-05)
(0.115901 0.785181 -4.58632e-05)
(0.111104 0.699862 -2.13382e-05)
(-0.000664298 -0.0007836 0.567882)
(0.000476342 0.00133086 0.89609)
(0.00155373 0.00531299 0.0001339)
(-4.1628e-05 0.00191145 0.741425)
(0.00269187 0.00941502 0.000134265)
(0.000172909 0.00949962 0.273722)
(-0.0606509 0.582605 -0.00041197)
(0.00705731 -0.00484494 1.75088)
(0.000196987 0.000133807 0.30378)
(0.014196 0.517295 -0.000201796)
(0.000592022 -0.000231576 0.244949)
(0.0232896 0.486497 -5.06654e-05)
(0.0614103 0.527956 -0.000194142)
(0.06115 0.518204 -0.000159647)
(0.000246909 0.000118586 0.244304)
(0.000269589 0.000128105 0.268704)
(0.0575666 0.53069 -9.72547e-05)
(0.0523165 0.527325 0.000186101)
(0.0473235 0.517577 0.00150206)
(1.7165e-05 -0.00100965 0.22297)
(-0.0191945 -0.105329 0.00103923)
(-0.00011227 0.000120091 0.502096)
(0.0915722 0.508959 0.000227924)
(0.000230447 5.23822e-05 0.320699)
(0.000233918 5.40282e-05 0.322179)
(0.478011 -0.190462 -0.00398344)
(0.227996 0.215556 0.00252426)
(0.000167784 7.30889e-06 0.0813057)
(-0.052639 -0.517781 0.000141761)
(-0.0691343 -0.558543 0.000158673)
(-0.0553829 -0.543975 0.000183549)
(-0.0694859 -0.561326 0.000162123)
(-0.074889 -0.604085 0.000210235)
(-0.0601693 -0.590151 0.000225428)
(-0.0847153 -0.68219 0.00026804)
(0.178746 0.773314 -0.000403708)
(0.448388 2.19487 -0.000972908)
(0.182301 0.789131 -0.000405701)
(0.427844 2.09371 -0.000943444)
(-0.0664844 -0.538097 5.56126e-05)
(-0.0421587 -0.262823 0.000134041)
(-0.104931 -0.843154 0.000383382)
(-0.0476452 -0.296594 0.000154525)
(1.39028 0.921143 -0.000218088)
(1.38664 0.918768 -0.000128246)
(0.225166 0.97762 -7.75911e-06)
(0.611616 3.00113 -0.000163146)
(0.583699 2.86345 -0.000102087)
(0.25525 1.10834 -3.05789e-05)
(0.388825 2.30469 -0.000166075)
(0.434553 2.57567 -0.00024811)
(-0.00121873 -0.0108471 1.7974e-06)
(-0.000831658 -0.00907029 9.66545e-07)
(0.0220109 0.124487 -1.40874e-05)
(0.0224005 0.126183 -1.04879e-05)
(0.050445 0.21888 2.1667e-05)
(0.03702 0.168114 1.77057e-05)
(0.0604336 0.262966 -1.21541e-05)
(0.028926 0.130448 4.8164e-05)
(-0.108357 -0.871493 0.000452889)
(-0.0689256 -0.500602 0.000254675)
(0.0184972 0.0870762 8.46655e-05)
(-0.0102918 -0.0572414 8.83952e-05)
(0.0635611 0.231712 -0.000130191)
(0.0714983 0.260611 -0.000123119)
(0.0345363 0.124454 -7.16295e-05)
(0.0399421 0.143926 -6.82956e-05)
(0.277699 1.25625 -5.79988e-05)
(0.175026 0.75929 6.01052e-05)
(0.307406 1.45337 -0.00012554)
(0.142807 0.716657 -9.83786e-06)
(-0.0190462 -0.160308 0.000155836)
(-0.0435811 -0.323063 0.000270366)
(-0.00708311 -0.0517374 -1.91161e-05)
(0.000103194 -0.00449221 1.71056e-06)
(-0.018888 -0.129364 9.33803e-06)
(-0.0250869 -0.1753 5.95719e-05)
(0.0966643 0.395228 0.000182884)
(0.083803 0.311499 -2.95808e-05)
(0.0839253 0.311957 -2.04489e-05)
(0.10809 0.44341 -0.000615738)
(0.164872 0.72414 -0.000100028)
(0.14139 0.651523 7.0788e-05)
(0.172231 0.75699 -6.22588e-05)
(0.180982 0.843979 7.48476e-05)
(-0.00257044 1.2694 -3.94531e-05)
(0.073962 1.11558 -0.000173355)
(-0.00262463 1.27519 -0.000104463)
(0.0664299 1.00304 -7.69541e-05)
(-0.0618753 1.51308 -5.57468e-05)
(1.38657 0.92008 -0.000350707)
(-0.0602016 1.47353 -0.00014042)
(0.488172 4.18536 -0.00150168)
(0.0907824 0.356713 -3.04687e-05)
(0.086174 0.338487 -2.50307e-05)
(0.0614726 0.225325 -1.72343e-05)
(0.0679875 0.249273 -4.02852e-05)
(0.0565242 0.296252 -5.4281e-05)
(0.183159 0.904035 -0.000942875)
(0.0212842 0.118467 -4.71946e-05)
(0.0468442 0.251319 -1.79897e-05)
(0.723704 4.52718 0.00285824)
(0.360832 2.41048 0.000725032)
(0.0316321 0.114677 -9.49551e-06)
(0.0358063 0.129851 -2.33479e-05)
(1.26564 0.840718 0.0012891)
(0.0901346 0.623737 -0.000315559)
(0.253323 0.237588 3.3515e-05)
(0.499094 -0.206978 -7.62746e-05)
(0.240074 0.225865 -4.89417e-05)
(0.517772 -0.215091 -0.000345112)
(0.0702212 0.257539 -4.34495e-05)
(0.0323631 0.113818 -2.54938e-05)
(0.0382597 0.138803 -2.61855e-05)
(0.284473 0.660816 -1.23556e-05)
(0.274685 0.806269 -3.13439e-05)
(0.000426632 0.000954118 0.729708)
(0.000146259 0.000205022 0.363093)
(0.000307394 -0.000304174 0.384042)
(-0.194566 1.80416 -0.000129336)
(-0.0618942 1.51387 -3.1549e-05)
(1.38215 0.92222 -0.00142765)
(0.023765 0.0224469 9.07953e-06)
(0.358247 -0.147228 0.000128511)
(0.351492 -0.142894 0.000563016)
(0.0251267 0.0237047 -1.23144e-06)
(0.00021527 -0.000244158 0.545908)
(0.000186789 -0.000146257 0.380805)
(0.000195621 5.60989e-05 0.341917)
(0.000370853 0.000192974 0.365738)
(-0.0914688 -0.735938 0.000306418)
(1.36533 0.903877 -0.0004266)
(1.35219 0.895152 -0.000414884)
(1.32536 0.877356 -0.000397391)
(1.3514 0.894623 -0.000413803)
(0.397659 1.94488 -0.00088775)
(0.175417 0.758274 -0.000395182)
(0.177399 0.767351 -0.000400904)
(0.420097 2.05562 -0.000933596)
(0.270178 1.59558 -0.000706628)
(0.288785 1.70579 -0.000719034)
(-0.0241174 -0.142532 8.72896e-05)
(-0.0306714 -0.180428 0.000109585)
(-0.0548507 -0.341092 0.000190528)
(-0.0496084 -0.308679 0.000163626)
(-0.0401067 -0.235149 0.000151138)
(-0.0331433 -0.194723 0.000119509)
(0.253425 2.15448 -0.000871368)
(0.240522 2.04424 -0.000951891)
(0.0253148 0.0934032 6.08313e-06)
(0.0239269 0.0966197 -1.60936e-05)
(0.0355017 0.144288 0.000194706)
(0.0333142 0.123151 -1.7547e-05)
(0.00202101 0.0079329 6.85839e-05)
(0.0278093 0.118946 0.000119081)
(0.03688 0.159198 6.02535e-05)
(0.0221957 0.0987401 0.000105235)
(0.0412318 0.152599 -3.79757e-05)
(0.0455206 0.185539 0.000209384)
(0.0355807 0.131582 -2.39002e-05)
(0.0425736 0.634769 -0.000253377)
(-0.00155293 1.01971 -0.000393024)
(-0.00173495 1.12355 -0.000430997)
(0.046869 0.69906 -0.000283303)
(-0.0541474 1.34094 -0.000509485)
(1.31611 0.871192 -0.000384359)
(-0.0566044 1.40144 -0.000535794)
(-0.0486327 1.20516 -0.000454682)
(-0.0529586 1.31169 -0.000497367)
(1.31326 0.869301 -0.000384507)
(-0.00178635 1.1517 -0.000442267)
(0.0511653 0.764254 -0.000303022)
(-0.00188831 1.20777 -0.000466)
(0.0481746 0.719023 -0.000263117)
(0.226663 1.33778 -0.000572673)
(0.410844 2.55708 -0.00310727)
(0.237325 1.57958 -0.000694026)
(0.24699 1.45798 -0.000680761)
(0.405249 2.52616 -0.00106181)
(0.377572 2.35257 -0.00102588)
(0.195425 1.29918 -0.00133625)
(-0.0806528 -0.59169 -6.68923e-05)
(-0.101471 -0.816683 0.000383723)
(-0.0660836 -0.438534 0.000236859)
(-0.0561275 -0.349649 0.000228793)
(-0.0793655 -0.532261 0.000202979)
(-0.052459 -0.327704 0.000230085)
(-0.0232958 -0.129717 0.000121372)
(-0.0437803 -0.257181 0.000204005)
(0.00547996 0.0206639 0.00023967)
(-0.0464061 -0.273952 0.000182467)
(0.231126 1.03827 -0.000528654)
(0.179575 0.775573 -0.000373916)
(0.237965 1.12092 -0.000531045)
(0.177503 0.766881 -0.000380722)
(0.225179 1.01487 -0.000496902)
(0.241516 1.13633 -0.000853622)
(0.367883 1.79722 -0.000926771)
(0.105599 0.412752 -0.000149428)
(0.0893442 0.349138 -0.000158424)
(0.0953488 0.347708 -0.000111227)
(0.0752107 0.274149 -0.000119491)
(0.0867589 0.339067 -0.000167451)
(0.0807725 0.315738 -0.000171804)
(0.0553858 0.1997 -6.06935e-05)
(0.0424792 0.153072 -6.64318e-05)
(0.124331 0.288125 -4.98295e-05)
(0.105597 0.244601 -7.89888e-06)
(-0.0206039 -0.156074 0.000116701)
(-0.01805 -0.129047 0.000105662)
(0.0811855 0.414799 -0.000488135)
(0.0857363 0.4278 -0.000184335)
(0.124037 0.654528 -0.0009279)
(-0.0191805 -0.189437 4.74675e-05)
(-0.0197786 -0.180217 0.000122336)
(-0.0171071 -0.188088 -0.000194871)
(-0.0211202 -0.292747 0.000117285)
(0.0770976 0.368892 -0.000309179)
(0.0816281 0.407343 -0.00016358)
(-0.00390308 -0.0165378 6.12484e-05)
(0.00630639 0.0243714 0.000103707)
(-0.000369298 -0.00220704 7.11678e-05)
(0.0131202 0.048057 5.30836e-05)
(0.0176492 0.645882 -0.00023886)
(-0.00121128 0.842386 -0.000348386)
(0.0268789 0.565953 -0.000280508)
(0.0360583 0.539055 -0.000306524)
(-0.105111 1.00059 -0.00183944)
(-0.040845 1.01518 -0.000453575)
(1.22925 0.820813 0.0027779)
(-0.460304 1.49851 -0.000332506)
(-0.0446959 1.1088 -0.000436724)
(-0.140482 1.30879 -0.00045712)
(-0.011698 -0.0611303 8.9933e-05)
(-0.00848856 -0.0437026 7.534e-05)
(-0.0102729 -0.0526327 8.56062e-05)
(-0.00987666 -0.0518215 8.07754e-05)
(-0.0247025 -0.135567 -1.90704e-06)
(0.000616177 0.000426009 0.388096)
(0.0583685 0.392495 -0.000184667)
(0.0921303 0.637647 -0.000418727)
(0.060435 0.406124 -0.000256948)
(0.126638 0.462094 -0.000106762)
(0.153818 0.561554 -0.000146078)
(0.0730422 0.263537 -5.64929e-05)
(0.0618494 0.21631 -5.38056e-05)
(0.0814713 0.285482 -0.000253413)
(0.089238 0.322173 -9.35346e-05)
(0.446217 -0.186499 -0.00282601)
(0.21673 0.199005 0.000885918)
(0.264144 0.245662 0.000233332)
(0.520805 -0.21731 -0.00117093)
(0.200785 0.870497 -0.000389639)
(0.565034 2.7692 -0.000981555)
(0.17988 0.780003 -0.000259421)
(0.524477 2.56999 -0.00105933)
(-0.0666219 -0.539027 7.8627e-05)
(-0.00166976 -0.0135738 4.07895e-06)
(-0.00145516 -0.0122504 3.37649e-06)
(0.207767 0.90211 -0.000138108)
(0.606157 2.97344 -0.000525376)
(0.232647 1.0098 -0.000130284)
(-0.0613613 -0.445844 0.000201582)
(0.177435 0.780123 -0.000104951)
(0.144044 0.664722 -9.44281e-05)
(0.177505 0.78043 -0.000118608)
(0.144017 0.664562 -8.76284e-05)
(0.0673904 0.247013 3.19551e-05)
(0.0630085 0.230915 2.30499e-05)
(-0.0336603 -0.246976 2.42258e-05)
(0.162826 0.805878 -0.000108367)
(0.0638481 0.335766 -4.25857e-05)
(0.0356105 0.129093 1.97401e-05)
(0.0331343 0.120092 1.50765e-05)
(1.3867 0.918947 -0.000162421)
(0.0212579 0.019954 -7.38977e-06)
(0.390132 -0.161884 -1.0843e-05)
(0.0212482 0.0199415 -4.83776e-06)
(0.3824 -0.158609 -1.46053e-05)
(-0.0219851 -0.138654 6.54476e-05)
(-0.0245028 -0.154152 7.35617e-05)
(-0.0401753 -0.250616 0.000127114)
(-0.09574 -0.769945 0.000329935)
(-0.0354554 -0.221565 0.000110303)
(0.184237 0.79768 -0.000409452)
(0.195769 0.848338 -0.00042011)
(0.102838 0.449914 -0.00013446)
(0.077102 0.353788 -0.000103971)
(0.106303 0.465186 -0.000143399)
(0.0738294 0.338639 -9.44864e-05)
(0.0439795 0.200449 -8.18514e-06)
(0.0689662 0.30061 -3.75642e-05)
(0.0758 0.330745 -5.88652e-05)
(0.0497945 0.227412 -2.82596e-05)
(0.0582354 0.212984 -0.000150541)
(0.0565733 0.206768 -0.000145405)
(0.0618033 0.225331 -0.000131869)
(0.0580493 0.211742 -0.000135454)
(0.0142435 0.0728031 -3.8837e-07)
(0.0685948 0.336435 -8.18996e-05)
(-0.0684395 -0.496933 0.000245623)
(0.0260249 0.124748 5.05955e-05)
(-0.00653608 -0.0371964 6.90203e-05)
(0.0330606 0.159838 2.343e-05)
(0.0316312 0.114406 -8.63739e-05)
(0.0302542 0.109341 -8.23735e-05)
(0.0333323 0.120128 -7.25605e-05)
(0.0308109 0.111095 -7.47162e-05)
(1.32798 0.879068 -0.000393937)
(1.29583 0.857796 -0.000305505)
(0.130601 0.123012 -6.17388e-05)
(0.358348 -0.148811 4.90653e-05)
(0.369249 -0.153337 5.22712e-05)
(0.118354 0.111466 -5.97208e-05)
(0.477748 -0.198151 1.55695e-05)
(0.223552 0.210526 -7.14753e-05)
(0.20914 0.197021 -7.3795e-05)
(0.45769 -0.189939 2.99557e-05)
(7.49535e-05 -0.0134328 2.07733e-06)
(0.000124458 -0.00970237 3.1198e-06)
(-0.0519691 -0.511507 0.000119784)
(-3.20896e-05 -0.0212284 6.6212e-06)
(-3.34405e-05 -0.0214056 5.61167e-06)
(-0.067723 -0.547461 0.000133926)
(-0.054111 -0.531813 0.000166182)
(-9.6918e-05 -0.0257931 1.11824e-05)
(-8.45231e-05 -0.0249749 9.8482e-06)
(-0.0716784 -0.578652 0.00018505)
(-0.0721374 -0.582294 0.000188053)
(-0.000323424 -0.042204 2.06395e-05)
(-0.0579692 -0.568915 0.000207187)
(-0.000129214 -0.0280914 1.52992e-05)
(-0.080088 -0.645406 0.000241952)
(1.37921 0.913159 -0.0004468)
(1.3783 0.912542 -0.000443538)
(1.3766 0.911391 -0.000440241)
(1.38056 0.914031 -0.000443818)
(0.203731 0.883198 -0.000414445)
(0.522572 2.56014 -0.00110856)
(0.527752 2.58581 -0.00108661)
(0.193787 0.839983 -0.000405116)
(0.179578 0.777051 -0.000403077)
(0.236651 1.06756 -0.000520552)
(0.267559 1.26172 -0.000577949)
(0.441894 2.16289 -0.000962812)
(0.181057 0.783596 -0.000404206)
(0.243923 1.1008 -0.000527757)
(0.256974 1.21142 -0.0005645)
(0.434393 2.12597 -0.000958611)
(1.38588 0.918111 -0.00032569)
(1.38737 0.919146 -0.000287558)
(1.39054 0.921304 -0.000228143)
(1.38928 0.920419 -0.00028164)
(0.443118 2.6266 -0.000297449)
(0.442871 2.62535 -0.000479667)
(-0.00127763 -0.0111769 1.96135e-06)
(-0.0665614 -0.538579 7.26669e-05)
(-0.00136884 -0.01172 3.05281e-06)
(0.0215447 0.12179 -2.32752e-05)
(0.0217878 0.123217 -2.02167e-05)
(0.0219571 0.124203 -1.56277e-05)
(0.02189 0.123814 -1.91372e-05)
(0.257726 1.11905 -7.52604e-05)
(0.216284 0.939349 -0.000133795)
(0.626074 3.0725 -0.000466851)
(-0.0555029 -0.368614 0.00017447)
(-0.0438816 -0.273429 0.000140105)
(-0.064703 -0.469909 0.000218306)
(-0.0458388 -0.285474 0.00014753)
(-0.0599606 -0.397924 0.000193649)
(0.432621 3.69539 -0.000584191)
(0.433744 3.70642 -0.000470966)
(0.0837807 0.311409 -3.3806e-05)
(0.108166 0.443748 0.000523546)
(0.108267 0.444159 -0.000626686)
(0.0836942 0.311077 -4.28337e-05)
(0.140443 0.647457 -0.000100819)
(0.175865 0.773117 -7.73224e-05)
(0.176906 0.777767 -9.38645e-05)
(0.143416 0.661644 -8.10635e-05)
(0.108254 0.444099 0.000505794)
(0.0835395 0.310486 -5.33504e-05)
(0.108204 0.443875 -0.000642339)
(0.0836502 0.31091 -4.59597e-05)
(0.0762926 1.15104 -0.000152716)
(-0.00273907 1.33495 -0.000122061)
(-0.00309028 1.5171 -0.000209717)
(0.0771768 1.16232 -0.000153428)
(-0.069826 1.70947 -0.000262897)
(1.3888 0.92018 -0.000187733)
(-0.0696912 1.7066 -0.000317274)
(-0.0612518 1.49939 -0.000157471)
(-0.0684663 1.67612 -0.000237144)
(1.38756 0.919365 -0.000170802)
(-0.00312395 1.53521 -0.000232114)
(0.0690172 1.03917 -0.000210717)
(-0.00304009 1.50063 -0.000284272)
(0.0749478 1.12857 -0.000165848)
(0.295061 1.33503 6.04716e-07)
(0.23524 1.02134 3.00893e-06)
(0.622846 3.05608 -8.05855e-05)
(0.377445 1.78496 -7.14266e-05)
(0.32249 1.52491 1.89088e-05)
(0.617869 3.03144 -0.000139296)
(0.245868 1.06758 -7.60508e-06)
(0.352163 1.59352 -4.32712e-05)
(0.084438 0.331634 -2.00496e-05)
(0.0803552 0.315527 -3.03596e-06)
(0.0605943 0.222053 -8.81533e-06)
(0.061454 0.225194 1.6939e-05)
(0.0799351 0.313917 3.43253e-06)
(0.630851 3.94543 -0.00065199)
(0.398797 2.36367 -0.00019009)
(0.641134 4.0103 -0.000381615)
(0.395475 2.64301 -0.000335099)
(0.395233 2.6415 -0.000275039)
(0.419644 2.48732 -0.000169003)
(-0.0318296 -0.234247 1.96598e-05)
(-0.0201709 -0.136586 1.45924e-05)
(-0.00112858 -0.0103742 1.45337e-06)
(-0.0194695 -0.132586 1.29498e-05)
(-0.00110944 -0.0104385 1.47909e-06)
(0.0630994 0.331316 -2.58213e-05)
(0.160433 0.793218 -6.45177e-05)
(0.162764 0.805273 -8.80901e-05)
(0.0480608 0.258949 -3.10713e-05)
(0.0220758 0.124792 -1.28149e-05)
(0.0480346 0.258306 -2.22382e-05)
(0.0220845 0.124677 -1.097e-05)
(0.0311727 0.11297 -4.08503e-06)
(0.0321309 0.11644 1.13791e-05)
(0.0657394 0.239636 -0.000128555)
(0.0681915 0.248556 -0.000126045)
(0.0319086 0.111483 -6.48753e-05)
(0.0360218 0.1298 -7.07424e-05)
(0.0377987 0.132064 -6.1559e-05)
(0.0377044 0.135857 -6.94016e-05)
(0.274694 0.806324 -8.68069e-05)
(0.274655 0.806177 -7.194e-05)
(0.284685 0.661334 -5.90126e-05)
(0.284684 0.661336 -6.21425e-05)
(-0.193324 1.79251 -0.000116033)
(-0.060577 1.48256 -0.000120574)
(1.38696 0.919511 -0.000218579)
(-0.8338 2.7124 -0.0002313)
(-0.0597698 1.46286 -0.000129426)
(-0.189972 1.76081 -0.000174)
(0.062844 0.230336 -2.58303e-05)
(0.0658215 0.241294 -3.4279e-05)
(0.0323245 0.117176 -1.50272e-05)
(0.0270988 0.0952671 -9.13495e-06)
(0.0309258 0.108738 -2.16196e-05)
(0.0342665 0.124244 -2.02531e-05)
(0.433651 2.56493 -0.00110127)
(0.384866 2.27605 -0.000989653)
(-0.000882759 -0.0081507 1.62214e-05)
(-0.00373574 -0.0246559 2.43437e-05)
(-0.028608 -0.179422 8.7311e-05)
(-0.025599 -0.160899 7.69022e-05)
(-0.00844699 -0.0519076 3.84108e-05)
(-0.00500028 -0.0319704 2.7766e-05)
(1.36367 0.902785 -0.000426714)
(1.37257 0.908696 -0.000433573)
(1.37807 0.912363 -0.000440514)
(1.37297 0.908969 -0.000434242)
(-0.0217698 -0.128955 7.98853e-05)
(-0.0163134 -0.0974016 6.22645e-05)
(0.349933 2.06853 -0.000872111)
(0.373973 2.21141 -0.000958168)
(-0.0944272 -0.759491 0.000323026)
(-0.0299647 -0.187773 9.16062e-05)
(-0.0337946 -0.211344 0.000104757)
(-0.0100191 -0.061001 4.28727e-05)
(-0.014377 -0.0862035 5.64129e-05)
(0.197419 0.855519 -0.000407702)
(0.514971 2.52285 -0.00111199)
(0.192415 0.833973 -0.000399752)
(0.480176 2.35172 -0.00105855)
(0.282651 2.40382 -0.000990368)
(0.290827 2.47376 -0.00102983)
(0.0657966 0.268895 0.000262025)
(0.0532818 0.197425 -6.49876e-05)
(0.0560533 0.207734 -7.10935e-05)
(0.0619488 0.253076 -0.000395093)
(0.0979615 0.428424 -0.00012157)
(0.0654338 0.299795 -7.25661e-05)
(0.0936312 0.409344 -0.000109105)
(0.0694177 0.318223 -8.39637e-05)
(0.0592776 0.21973 -7.80059e-05)
(0.0569761 0.211167 -7.31488e-05)
(0.0704762 0.288136 0.000275219)
(-0.00218234 1.36561 -0.000530584)
(0.0573216 0.856736 -0.000338019)
(0.058574 0.87556 -0.000344817)
(-0.00213353 1.33982 -0.000519996)
(-0.0636332 1.5743 -0.000608869)
(1.3621 0.901726 -0.000421429)
(-0.0643052 1.59073 -0.000618232)
(-0.00219948 1.3744 -0.00053439)
(0.05995 0.896279 -0.000353813)
(-0.00222695 1.38656 -0.000541444)
(0.0589812 0.881687 -0.00034729)
(-0.0632212 1.56419 -0.000604289)
(1.35941 0.899945 -0.00041942)
(-0.062078 1.53609 -0.000592231)
(0.315948 2.68819 -0.00108668)
(0.310289 2.63982 -0.00107117)
(0.0430284 0.159283 -4.23295e-05)
(0.0472891 0.175133 -5.17505e-05)
(0.0555385 0.226725 -0.000344982)
(0.052088 0.192984 -6.25636e-05)
(0.06016 0.245722 0.000245891)
(0.0487327 0.180502 -5.49704e-05)
(0.0823918 0.359803 -7.89167e-05)
(0.0601329 0.27527 -5.86214e-05)
(0.0875178 0.382401 -9.35034e-05)
(0.0554939 0.2538 -4.48943e-05)
(-0.0572638 1.41759 -0.00054251)
(-0.0594937 1.47255 -0.00056347)
(1.33911 0.886467 -0.000403752)
(0.0519849 0.776603 -0.000307879)
(-0.0019206 1.22339 -0.000472523)
(-0.0020169 1.2779 -0.000492943)
(0.0542929 0.811226 -0.000320275)
(-0.0020461 1.29378 -0.000499595)
(0.0567819 0.848603 -0.000334839)
(0.0550769 0.822995 -0.000324679)
(-0.00211087 1.32871 -0.000515348)
(-0.0601488 1.48867 -0.000570379)
(1.34449 0.890038 -0.000406955)
(-0.0616171 1.52479 -0.00058753)
(0.0754589 0.295505 -0.000179635)
(0.0756522 0.296123 -0.000179806)
(0.0558302 0.203864 -0.000140889)
(0.0561672 0.205237 -0.000144027)
(0.0757268 0.296737 -0.000179626)
(0.240945 1.13525 -0.000540875)
(0.404837 1.98036 -0.000931842)
(0.226363 1.02043 -0.000503363)
(0.175442 0.758566 -0.000403581)
(0.176501 0.763317 -0.000402603)
(0.233675 1.05398 -0.00051628)
(0.413051 2.02091 -0.000918553)
(0.252743 1.19135 -0.000559729)
(0.0769633 0.301012 -0.000176613)
(0.0765827 0.299572 -0.000177757)
(0.0756465 0.296052 -0.000179251)
(0.0558581 0.203919 -0.000139618)
(0.0572801 0.208977 -0.00013666)
(0.263059 1.75137 -0.000740157)
(0.419931 2.61814 -0.00112125)
(0.276347 1.63207 -0.000700063)
(0.282864 1.67071 -0.000714119)
(0.450127 2.80688 -0.00117226)
(0.440492 2.74674 -0.0011551)
(0.269634 1.79528 -0.000745482)
(-0.00146538 -0.010707 3.45815e-05)
(-0.0261174 -0.154098 9.36926e-05)
(0.0526552 0.257258 -3.7179e-05)
(0.00640094 0.0313428 2.31169e-05)
(-0.028493 -0.167835 0.000101797)
(-0.00888127 -0.0510059 5.78958e-05)
(-0.0653336 -0.433392 0.000225699)
(-0.0531459 -0.330501 0.00018086)
(-0.0658069 -0.477852 0.000225649)
(-0.0514189 -0.319831 0.000170703)
(-0.0614872 -0.40797 0.000201952)
(0.461259 2.8765 -0.00119484)
(0.470526 2.93446 -0.00121156)
(0.29287 1.95054 -0.000793449)
(0.286951 1.91099 -0.000780505)
(-0.0204766 -0.114178 0.000102305)
(-0.03776 -0.221477 0.000138062)
(0.0461141 0.22476 -1.77774e-05)
(0.00315579 0.0141839 3.30929e-05)
(0.039993 0.194333 -2.19266e-07)
(-0.0354164 -0.207883 0.000127454)
(-0.0118399 -0.0670872 6.76424e-05)
(0.0294542 0.106333 -7.85496e-05)
(0.029898 0.108025 -8.12311e-05)
(0.029446 0.106275 -7.76256e-05)
(0.0302984 0.10927 -7.54706e-05)
(0.119575 0.350007 -7.51354e-05)
(0.145443 0.425939 -0.000126008)
(0.194192 0.450346 -0.000166855)
(0.188906 0.438078 -0.000159938)
(0.161447 0.374346 -0.000124855)
(0.169638 0.393366 -0.00013918)
(0.152426 0.446443 -0.000139321)
(-0.605782 1.97362 -0.000712695)
(1.32291 0.875702 -0.00038774)
(-0.055886 1.38376 -0.000527081)
(-0.168192 1.56601 -0.000591604)
(-0.578498 1.8849 -0.000741091)
(-0.508683 1.65683 -0.000501364)
(-0.526842 1.71633 -0.000623999)
(-0.145646 1.35681 -0.000507073)
(-0.0501268 1.24196 -0.00046707)
(1.3062 0.8646 -0.000356034)
(-0.561357 1.82919 -0.000665187)
(0.0873652 0.318519 -0.000109912)
(0.0804417 0.293257 -0.000117888)
(0.144216 0.135848 -6.38485e-05)
(0.398673 -0.165558 6.00169e-05)
(0.383056 -0.159071 5.61983e-05)
(0.158357 0.149182 -6.41778e-05)
(0.054065 0.189026 -5.39422e-05)
(0.0504134 0.181715 -6.02321e-05)
(0.045868 0.165307 -6.51218e-05)
(0.0405495 0.141682 -5.94936e-05)
(0.190094 0.179096 -6.98166e-05)
(0.416832 -0.17309 5.36311e-05)
(0.435366 -0.180749 4.83339e-05)
(0.174489 0.164391 -6.49382e-05)
(0.611016 2.99718 -0.000523195)
(0.24339 1.0564 -0.000140085)
(0.250707 1.08811 -0.000179466)
(0.632644 3.10305 -0.000598298)
(0.231125 1.00249 -0.000287894)
(0.682364 3.34614 -0.000984182)
(0.227813 0.988409 -0.000304894)
(0.668042 3.27527 -0.00105009)
(0.21312 0.924242 -0.00033069)
(0.619008 3.03413 -0.00103631)
(0.199467 0.865051 -0.000288463)
(0.629387 3.08469 -0.00109296)
(-0.0667182 -0.539735 8.90882e-05)
(-0.0339368 -0.248784 4.60147e-05)
(-0.0484314 -0.352756 0.000142845)
(-0.0601002 -0.436762 0.000195828)