/*--------------------------------*- C++ -*----------------------------------*\
| =========                 |                                                 |
| \\      /  F ield         | OpenFOAM: The Open Source CFD Toolbox           |
|  \\    /   O peration     | Version:  2306                                  |
|   \\  /    A nd           | Website:  www.openfoam.com                      |
|    \\/     M anipulation  |                                                 |
\*---------------------------------------------------------------------------*/
FoamFile
{
    version     2.0;
    format      ascii;
    arch        "LSB;label=32;scalar=64";
    class       volScalarField;
    location    "0.45";
    object      p;
}
// * * * * * * * * * * * * * * * * * * * * * * * * * * * * * * * * * * * * * //

dimensions      [0 2 -2 0 0 0 0];

internalField   nonuniform List<scalar> 
111542
(
60.3672
61.6449
64.7067
69.734
76.814
86.166
97.9608
112.247
128.558
145.509
160.584
169.808
169.126
157.239
137.061
114.202
92.6265
73.9073
58.2908
45.697
35.7557
28.1297
22.413
18.0854
14.8065
12.2965
10.2728
8.69994
7.52533
6.61971
5.89896
5.30619
4.85318
4.46933
4.10316
3.71329
3.24737
2.7021
1.97956
0.993697
59.2825
60.5202
63.5522
68.5236
75.6018
85.1094
97.4276
112.823
131.15
151.372
170.843
184.044
183.384
167.457
141.901
115.248
91.657
71.8987
55.861
43.2334
33.5435
26.2493
20.8032
16.8091
13.8196
11.5017
9.68164
8.27447
7.1911
6.33833
5.65217
5.09272
4.63538
4.24019
3.86765
3.48061
3.03673
2.49283
1.78164
0.850636
57.1345
58.3064
61.2022
66.0015
72.9804
82.6521
95.7348
113.047
135.266
162.254
190.724
212.157
212.337
187.151
151.173
118.036
90.6346
68.7834
51.8835
39.1304
29.7025
23.0945
18.3893
14.9312
12.1013
9.79611
8.05359
6.78171
5.83885
5.12251
4.57179
4.14502
3.80732
3.52595
3.26631
2.99306
2.66319
2.22288
1.60233
0.730299
53.9802
55.0287
57.6403
62.0408
68.6157
78.0927
91.6243
110.916
138.38
177.268
212.188
254.782
260.43
219.607
167.464
127.074
94.0569
68.8512
50.3873
36.9896
23.2586
17.0385
14.7476
13.4255
11.4605
9.39824
7.7436
6.49177
5.51044
4.7241
4.09794
3.60233
3.20771
2.88374
2.60145
2.32945
2.02344
1.62291
1.03633
0.147139
49.9359
50.782
52.9102
56.5613
62.1724
70.5862
83.2471
102.581
132.616
177.221
254.017
340.061
363.516
255.092
170.172
121.936
82.8252
56.3744
38.9723
27.8173
20.526
5.69601
4.98183
5.69403
5.176
4.43125
3.88777
3.47511
3.12033
2.81738
2.57042
2.37241
2.21369
2.08064
1.96218
1.84231
1.6898
1.45028
1.00311
0.0454144
45.2024
45.7597
47.1827
49.6694
53.593
59.6841
69.2701
84.8029
111.046
165.579
259.091
453.635
617.559
242.295
167.049
112.436
66.0226
40.1659
24.9121
15.8203
14.3133
14.1942
13.1241
8.274
5.03117
3.49762
2.66774
2.06257
1.59455
1.25729
1.02665
0.871338
0.768401
0.70171
0.659389
0.629892
0.598661
0.553724
0.502603
0.578396
40.0811
40.2802
40.8122
41.7757
43.3494
45.8691
49.918
56.4819
67.2571
106.536
182.137
411.8
1946.57
-430.762
188.163
76.7575
29.9019
15.2659
7.11504
-2.9729
-11.2374
15.1392
14.7016
9.04856
5.59038
4.2186
3.58509
3.12043
2.74848
2.47384
2.27429
2.1205
1.99536
1.88868
1.79517
1.71083
1.62358
1.52888
1.43127
1.39969
34.9507
34.7633
34.3236
33.6061
32.5408
30.9537
28.4437
24.0691
15.4477
17.7129
0.873319
-160.144
-994.26
-1030.47
-310.797
-101.243
-46.8896
-26.6392
-17.4408
-11.1136
-3.67816
-8.05951
-6.12361
-4.4589
-3.56428
-2.64128
-1.73336
-1.0022
-0.444239
-0.00199726
0.359492
0.655462
0.896304
1.08957
1.23986
1.34624
1.39351
1.34996
1.14862
0.661316
30.2195
29.6766
28.3224
26.0318
22.5357
17.2777
9.23943
-3.4671
-24.4546
-47.5681
-120.715
-264.464
-473.02
-501.603
-318.358
-174.859
-100.851
-61.7501
-39.7525
-25.7293
-15.5391
-8.64063
-4.61037
-1.723
0.0287487
1.12244
1.89994
2.45148
2.81658
3.04666
3.1852
3.25892
3.2829
3.26496
3.20578
3.09881
2.91999
2.61969
2.10133
1.17226
26.2916
25.4435
23.3488
19.8017
14.4235
6.49211
-5.19484
-22.6036
-49.005
-89.9779
-147.465
-219.989
-285.317
-294.029
-237.54
-165.375
-110.538
-75.1227
-52.0298
-35.9726
-24.5454
-16.8843
-11.7919
-8.15438
-5.55942
-3.70469
-2.31356
-1.23751
-0.405886
0.235599
0.734337
1.12461
1.42704
1.65213
1.79986
1.86373
1.82005
1.6249
1.2159
0.542609
23.4857
22.431
19.8236
15.4339
8.84022
-0.675284
-14.2151
-33.2712
-59.7138
-95.4242
-140.427
-189.62
-228.473
-236.194
-206.613
-158.542
-114.546
-82.2042
-59.3497
-42.6337
-30.1742
-21.0224
-14.3121
-9.38434
-5.7779
-3.15322
-1.23264
0.181306
1.21686
1.96545
2.49833
2.86873
3.11248
3.24984
3.28072
3.21595
3.03151
2.67949
2.08509
1.11403
22.0237
20.8741
17.9949
13.2073
6.01823
-4.19792
-18.4579
-37.9104
-63.7293
-96.31
-134.23
-172.191
-200.318
-207.037
-188.069
-152.751
-115.662
-85.3171
-62.6166
-45.6046
-32.7201
-23.0683
-15.9693
-10.7958
-7.07342
-4.38197
-2.42103
-0.980504
0.0830185
0.868364
1.4471
1.8706
2.17439
2.38307
2.44298
2.4294
2.29998
2.0029
1.48548
0.68996
59.8475
61.0659
64.0474
68.9025
75.7322
84.7461
96.1458
109.936
125.658
142.025
156.609
165.549
164.862
153.377
133.847
111.637
90.6374
72.3465
57.0709
44.7367
35.0473
27.5964
21.9543
17.707
14.478
11.9649
9.97782
8.43545
7.26165
6.36175
5.66065
5.10726
4.66924
4.30127
3.96036
3.60625
3.19516
2.68004
1.98264
1.00489
58.7729
59.9643
62.8955
67.6962
74.5279
83.7035
95.5966
110.46
128.163
147.726
166.606
179.51
178.76
163.31
138.543
112.66
89.6634
70.3383
54.6502
42.3219
32.8881
25.7451
20.3758
16.4321
13.4727
11.1654
9.35753
7.9631
6.89167
6.05687
5.39654
4.86869
4.44047
4.07542
3.73782
3.39076
2.99283
2.4916
1.81766
0.89544
56.6495
57.7765
60.5689
65.2001
71.9342
81.2677
93.8996
110.63
132.131
158.295
185.934
206.787
207.13
182.669
147.753
115.55
88.7578
67.3165
50.762
38.3424
29.2725
22.778
18.0485
14.557
11.719
9.42189
7.6982
6.45482
5.54671
4.86786
4.35541
3.96571
3.66284
3.4141
3.18838
2.9523
2.66576
2.27228
1.69187
0.818017
53.5337
54.5379
57.0511
61.2912
67.6292
76.7712
89.8414
108.513
135.164
173.028
208.437
250.38
255.961
215.654
164.744
125.168
92.5746
67.6378
49.4187
36.2853
22.8727
16.9403
14.4658
12.9241
10.8342
8.73995
7.11529
5.92689
5.02339
4.31892
3.77251
3.34951
3.01902
2.75092
2.51934
2.29713
2.04678
1.70835
1.18065
0.297217
49.5423
50.3464
52.3873
55.8962
61.2949
69.4024
81.6319
100.37
129.605
174.253
250.113
335.355
358.397
250.905
168.381
120.97
81.8873
55.3694
38.0193
26.9912
19.8068
5.93498
5.03987
5.47477
4.76031
3.93887
3.40846
3.04729
2.74987
2.49795
2.29227
2.12514
1.98987
1.87675
1.77861
1.6869
1.57997
1.40757
1.04435
0.145626
44.8695
45.3941
46.7482
49.1238
52.8818
58.7343
67.9843
83.0554
108.692
163.148
256.477
450.273
613.408
239.619
168.644
112.77
65.768
39.5405
24.1829
14.947
11.0181
12.4888
11.7532
7.11938
4.01751
2.63354
1.97463
1.5393
1.22247
1.00991
0.875838
0.790037
0.734501
0.698452
0.677795
0.671275
0.678399
0.699923
0.743944
0.868329
39.816
39.9953
40.4831
41.3777
42.8534
45.24
49.1177
55.484
66.0846
105.305
181.016
411.789
1938.07
189.64
81.4484
30.8358
15.1242
6.94683
-3.09101
-11.7491
14.4441
14.1593
8.5872
5.26122
3.96052
3.32873
2.83074
2.41341
2.09023
1.84365
1.64822
1.49069
1.36342
1.26442
1.19361
1.14926
1.13226
1.14684
1.22021
34.7544
34.5674
34.1085
33.3678
32.28
30.6788
28.1836
23.9037
15.5588
17.9255
1.68199
-156.516
-978.992
-1019.97
-305.698
-99.1953
-45.7603
-26.1807
-17.3548
-11.1618
-3.69107
-8.89168
-6.89035
-5.12097
-4.03348
-2.96136
-1.97969
-1.21488
-0.637272
-0.181485
0.189565
0.49297
0.741053
0.942798
1.10646
1.23606
1.32411
1.34277
1.21832
0.767726
30.1009
29.5664
28.2086
25.9395
22.4906
17.322
9.45075
-2.95055
-23.3891
-46.3847
-118.017
-259.585
-465.729
-492.057
-312.769
-171.581
-98.9034
-60.6647
-39.2305
-25.5817
-15.6389
-9.25156
-5.22015
-2.23751
-0.376544
0.785947
1.5875
2.13757
2.48979
2.70162
2.81986
2.87415
2.88207
2.85406
2.7941
2.69962
2.5512
2.30273
1.85969
1.03377
26.2237
25.376
23.324
19.8349
14.555
6.78931
-4.62842
-21.6041
-47.3127
-87.1953
-143.183
-213.984
-278.13
-286.565
-231.405
-161.174
-107.945
-73.6212
-51.2351
-35.6683
-24.599
-17.2087
-12.1763
-8.51989
-5.90273
-4.0296
-2.62196
-1.53321
-0.694046
-0.0495315
0.449476
0.838744
1.14055
1.36708
1.52163
1.59993
1.58179
1.4266
1.07554
0.481731
23.4598
22.4242
19.8612
15.5478
9.09373
-0.209766
-13.4254
-31.9978
-57.7352
-92.476
-136.268
-184.185
-222.17
-229.95
-201.244
-154.627
-111.958
-80.5955
-58.4087
-42.1636
-30.0471
-21.1349
-14.5492
-9.68566
-6.1152
-3.50883
-1.59495
-0.183055
0.850438
1.59564
2.12433
2.49034
2.73024
2.86616
2.90625
2.85313
2.68864
2.37174
1.83691
0.976483
22.0213
20.8814
18.0689
13.3523
6.33545
-3.65325
-17.5675
-36.5306
-61.638
-93.3558
-130.278
-167.283
-194.803
-201.613
-183.393
-149.083
-113.07
-83.6351
-61.5826
-45.0347
-32.4816
-23.0656
-16.1216
-11.0554
-7.377
-4.7052
-2.75331
-1.31516
-0.250929
0.535759
1.11539
1.53881
1.84016
2.03802
2.13113
2.13006
2.01479
1.74681
1.2837
0.59934
58.8333
59.9631
62.7466
67.2722
73.6312
82.0162
92.615
105.418
119.998
135.179
148.697
156.968
156.313
145.553
127.219
106.299
86.4194
69.0089
54.4314
42.6588
33.4165
26.2761
20.8286
16.7327
13.6381
11.2411
9.36019
7.89813
6.77569
5.91307
5.2425
4.71347
4.28713
3.92856
3.60279
3.2728
2.89738
2.42504
1.78668
0.891562
57.7818
58.8859
61.6155
66.0865
72.4442
80.9762
92.028
105.831
122.268
140.445
158.038
169.966
169.348
154.868
131.612
107.246
85.4497
67.0269
52.0589
40.3234
31.3545
24.4721
19.2686
15.4987
12.7106
10.5349
8.81383
7.46967
6.42355
5.60126
4.9478
4.42373
3.99607
3.63433
3.30867
2.98634
2.62856
2.18386
1.58574
0.76363
55.7065
56.7466
59.3391
63.644
69.9017
78.5714
90.3048
105.854
125.865
150.273
176.133
195.889
196.137
173.089
140.34
110.048
84.5732
64.0588
48.2551
36.4907
28.0265
21.6859
16.9793
13.6463
11.0379
8.92563
7.31124
6.12208
5.23631
4.56199
4.0445
3.64549
3.33277
3.07904
2.85822
2.64337
2.3993
2.07345
1.5822
0.79803
52.6665
53.5852
55.9085
59.837
65.7113
74.1889
86.3259
103.708
128.613
164.193
199.137
239.377
244.72
205.95
157.675
120.178
88.7751
64.6387
47.0818
34.5304
21.3943
15.7768
13.4901
12.0584
10.0186
7.92732
6.27002
5.03032
4.07264
3.32172
2.7402
2.29628
1.9606
1.70558
1.5092
1.35015
1.19912
1.0045
0.670813
0.0377324
48.7856
49.5038
51.376
54.6078
59.5882
67.0835
78.4297
95.9046
123.368
166.921
240.044
322.897
345.077
240.079
162.218
117.188
78.799
52.6753
35.7439
25.0657
17.9413
2.92528
3.74486
5.16369
4.63793
3.71266
3.02576
2.51101
2.07742
1.71441
1.42306
1.19499
1.02292
0.896559
0.813153
0.771214
0.766537
0.770373
0.681172
0.153325
44.2064
44.6905
45.9132
48.0705
51.5005
56.8723
65.4275
79.4973
103.733
156.967
248.667
439.828
599.491
228.361
166.704
111.904
64.3008
37.5153
22.0919
12.9513
6.80361
4.62794
5.71884
2.53382
-0.0858503
-1.35657
-1.97024
-2.37155
-2.65778
-2.83433
-2.91795
-2.93599
-2.89323
-2.80103
-2.65943
-2.46175
-2.18864
-1.80334
-1.2212
-0.175164
39.3094
39.4517
39.8549
40.6146
41.8949
44.01
47.5219
53.4327
63.5543
102.133
177.481
408.804
1921.68
203.701
78.0795
29.9937
13.8354
5.43044
-4.27165
-7.8423
13.511
11.9062
5.621
2.03185
0.645645
0.0181994
-0.41319
-0.728028
-0.932892
-1.05434
-1.12048
-1.14666
-1.13212
-1.07399
-0.960788
-0.77113
-0.47529
-0.0263093
0.605528
34.3949
34.1875
33.6992
32.9177
31.784
30.1472
27.6679
23.5514
15.7296
18.4344
3.81572
-148.403
-960.407
-1003.19
-293.062
-93.6741
-43.7439
-25.8525
-17.7995
-11.994
-4.46393
-8.9321
-8.13011
-7.12324
-6.12825
-4.945
-3.8356
-2.94976
-2.26272
-1.71451
-1.26508
-0.890994
-0.575469
-0.302233
-0.0513639
0.19054
0.432869
0.663214
0.815899
0.65833
29.8737
29.332
28.0061
25.7836
22.4245
17.429
9.88538
-1.90315
-21.2096
-43.3041
-111.402
-247.441
-447.231
-472.755
-298.732
-163.287
-94.4572
-58.4641
-38.3303
-25.4696
-16.0468
-10.1685
-6.42396
-3.61113
-1.81756
-0.677848
0.127864
0.703555
1.09641
1.3583
1.53449
1.6534
1.73255
1.78276
1.81421
1.82937
1.81825
1.74492
1.51814
0.928223
26.1132
25.2967
23.2939
19.9183
14.8334
7.3918
-3.49417
-19.6006
-43.8954
-81.499
-134.334
-201.482
-262.796
-271.233
-219.15
-152.937
-102.948
-70.7475
-49.6972
-35.0365
-24.6324
-17.7775
-12.7908
-9.16078
-6.64103
-4.84948
-3.47143
-2.37537
-1.51072
-0.83229
-0.294331
0.136848
0.484148
0.75887
0.97081
1.11935
1.19061
1.15022
0.938512
0.482188
23.4281
22.4269
19.9532
15.8005
9.60855
0.717535
-11.8612
-29.4726
-53.8018
-86.5836
-127.923
-173.3
-209.573
-217.379
-190.605
-146.829
-106.762
-77.2931
-56.3872
-41.0436
-29.5857
-21.1308
-14.7635
-10.0477
-6.61823
-4.12348
-2.27795
-0.900156
0.121185
0.869161
1.41214
1.80173
2.07373
2.2498
2.34245
2.35262
2.26651
2.04987
1.64107
0.926942
22.0304
20.9344
18.2242
13.687
6.96681
-2.56993
-15.8042
-33.7834
-57.5226
-87.4804
-122.368
-157.434
-183.714
-190.571
-173.777
-141.683
-107.878
-80.1914
-59.3815
-43.7203
-31.8142
-22.8556
-16.1996
-11.3058
-7.74154
-5.15584
-3.26405
-1.85996
-0.80953
-0.0223788
0.567827
1.00969
1.3362
1.56593
1.70697
1.75791
1.70545
1.52009
1.1625
0.59685
57.3907
58.4009
60.9009
64.9655
70.6653
78.161
87.608
98.9836
111.896
125.301
137.191
144.39
143.704
133.956
117.371
98.3762
80.1829
64.1174
50.6046
39.6777
31.0874
24.3968
19.2041
15.2344
12.2275
9.92044
8.12909
6.74482
5.68646
4.87991
4.26222
3.78353
3.40607
3.09862
2.83001
2.56788
2.27584
1.90692
1.39937
0.676102
56.3724
57.3562
59.802
63.8094
69.4976
77.1115
86.9469
99.1964
113.744
129.802
145.359
155.691
155.14
142.093
121.134
99.0802
79.1414
62.1354
48.286
37.4462
29.1596
22.6449
17.5795
13.8713
11.1626
9.08247
7.45034
6.18278
5.20636
4.45156
3.86594
3.40861
3.04631
2.75108
2.49747
2.25818
1.99966
1.6763
1.22665
0.581988
54.3643
55.2854
57.5976
61.4409
67.0191
74.7304
85.1446
98.9214
116.631
138.234
161.152
178.811
178.795
158.007
128.693
101.409
78.0713
59.1003
44.5128
33.7638
26.1926
19.9806
14.9569
11.5178
9.0856
7.21368
5.78625
4.73165
3.95339
3.37112
2.93364
2.60701
2.36429
2.18076
2.03786
1.91564
1.78825
1.61069
1.29977
0.695788
51.4268
52.2348
54.2915
57.7755
62.9814
70.4849
81.2207
96.6019
118.68
150.356
183.649
220.562
225.261
189.286
145.569
111.582
82.3106
59.6914
43.3397
31.7946
19.441
13.8999
10.7313
8.89786
7.07191
5.36512
4.03977
3.06313
2.3244
1.7556
1.32015
0.996715
0.761707
0.593245
0.483928
0.426292
0.41111
0.40704
0.328224
-0.0542023
47.6783
48.3092
49.9451
52.7784
57.1491
63.7326
73.7205
89.1617
113.595
154.503
221.964
299.59
320.016
220.114
150.71
109.815
72.8758
47.8526
31.9259
22.072
16.0345
-2.04913
-0.705703
1.45822
1.49838
0.942317
0.49102
0.137175
-0.174365
-0.440737
-0.657897
-0.820182
-0.936706
-1.01023
-1.02922
-0.977512
-0.830195
-0.574498
-0.271451
-0.308764
43.3041
43.6966
44.731
46.5735
49.5194
54.1623
61.6136
73.9953
95.6435
145.813
233.355
418.066
570.512
204.783
160.478
108.503
60.5586
33.788
18.7878
9.86216
7.80418
-5.88468
-2.1321
-2.163
-3.13052
-3.60595
-3.77923
-3.92319
-4.07762
-4.21347
-4.3181
-4.40491
-4.4543
-4.46268
-4.4069
-4.24817
-3.92154
-3.31324
-2.22519
-0.345936
38.5978
38.6872
38.9699
39.5321
40.5177
42.2044
45.1016
50.1562
59.1547
95.8124
169.215
400.193
1884.48
207.739
86.5009
30.1702
10.875
1.62812
-7.51759
-13.2539
13.322
11.134
4.32824
0.373856
-1.42598
-2.42766
-3.14886
-3.68846
-4.0741
-4.34316
-4.52118
-4.6329
-4.68287
-4.64544
-4.4905
-4.1576
-3.54293
-2.46861
-0.658979
33.8934
33.6602
33.1272
32.2823
31.0706
29.3544
26.8418
22.8558
15.6265
18.5562
6.27038
-134.418
-909.101
-952.697
-270.063
-84.5557
-41.6464
-26.6739
-19.7145
-14.2531
-6.99244
-8.49487
-7.63117
-6.90503
-6.15502
-5.21281
-4.30376
-3.57041
-3.0071
-2.56829
-2.21976
-1.92866
-1.69882
-1.50122
-1.29903
-1.06209
-0.7532
-0.33806
0.168393
0.506295
29.5645
29.0267
27.7312
25.5697
22.3295
17.565
10.4663
-0.467028
-18.1288
-38.5609
-100.849
-226.678
-413.722
-437.308
-274.385
-150.227
-88.1311
-55.7038
-37.4746
-25.7677
-17.2417
-12.0586
-7.47991
-4.17705
-2.42873
-1.49436
-0.872791
-0.442701
-0.168616
-0.00242432
0.10037
0.167514
0.211906
0.249672
0.297258
0.3659
0.460833
0.57119
0.632615
0.467854
25.9672
25.1826
23.2629
20.0471
15.2333
8.24549
-1.88859
-16.7455
-38.9585
-73.0852
-120.97
-182.11
-238.337
-246.672
-200.05
-140.566
-95.6871
-66.6347
-47.5032
-34.1506
-24.7353
-18.6147
-13.279
-9.35016
-6.84522
-5.17007
-3.89075
-2.8689
-2.06544
-1.4384
-0.942568
-0.544135
-0.222178
0.0385957
0.253429
0.427305
0.556359
0.6204
0.571124
0.337992
23.3958
22.4436
20.0948
16.1671
10.3421
2.0311
-9.64707
-25.8823
-48.165
-78.0416
-115.646
-157.009
-190.391
-198.08
-174.388
-135.171
-99.1442
-72.4818
-53.4194
-39.3644
-28.858
-21.0602
-14.9381
-10.3018
-6.96351
-4.57691
-2.82779
-1.52878
-0.57227
0.122571
0.623543
0.982266
1.23441
1.40325
1.50508
1.5441
1.51224
1.38562
1.11774
0.635563
22.0573
21.02
18.4549
14.1752
7.86762
-1.0338
-13.3144
-29.8968
-51.6752
-79.0531
-110.889
-142.959
-167.217
-173.993
-159.334
-130.72
-100.301
-75.187
-56.1636
-41.7668
-30.7842
-22.4759
-16.2036
-11.4834
-8.00818
-5.49626
-3.67031
-2.31939
-1.31051
-0.556515
0.00704711
0.428392
0.74067
0.964677
1.11182
1.18341
1.17023
1.05206
0.801921
0.41227
55.6219
56.4893
58.6471
62.1533
67.0523
73.4613
81.4892
91.0874
101.893
113.005
122.735
128.478
127.606
119.079
104.742
88.2446
72.2548
57.9571
45.8266
35.9741
28.2211
22.1907
17.4881
13.8327
11.0275
8.87502
7.21179
5.92892
4.94707
4.19883
3.6284
3.182
2.82748
2.54089
2.29271
2.05869
1.81229
1.51343
1.11019
0.527118
54.6434
55.4847
57.5878
61.0323
65.9035
72.3883
80.7107
90.998
103.109
116.342
128.991
137.219
136.511
125.297
107.403
88.433
70.995
55.9089
43.5399
33.8519
26.4941
20.7521
16.2318
12.7727
10.1698
8.16383
6.59251
5.37065
4.42877
3.70601
3.15872
2.72742
2.38376
2.10564
1.87716
1.6749
1.4715
1.23391
0.912874
0.435761
52.718
53.4983
55.4713
58.7511
63.4935
70.0127
78.7577
90.2387
104.873
122.573
141.242
155.4
154.911
137.32
112.75
89.5963
69.3147
52.5633
39.6335
30.2273
24.0156
18.8274
14.087
10.6361
8.27755
6.53535
5.20306
4.2001
3.44424
2.87088
2.42127
2.07967
1.82259
1.62569
1.47869
1.37103
1.29098
1.21179
1.06785
0.674906
49.9091
50.5832
52.316
55.2544
59.6301
65.9038
74.8253
87.5219
105.621
131.437
161.435
192.463
195.906
164.625
127.741
98.7083
72.8372
52.7193
38.2213
28.2733
19.2156
16.5418
11.3936
7.63077
5.12515
3.31017
1.99952
1.07435
0.430201
-0.0361195
-0.384721
-0.636355
-0.810898
-0.931739
-0.995029
-0.986975
-0.891397
-0.698154
-0.430464
-0.26095
46.3349
46.8483
48.1959
50.5371
54.1426
59.5558
67.7372
80.3424
100.257
136.315
193.31
260.338
277.188
187.993
131.814
96.5116
62.8719
40.3521
26.3287
18.2153
15.3589
7.70021
5.16494
3.62631
2.08281
0.750169
-0.254341
-1.04378
-1.65995
-2.15203
-2.55026
-2.85562
-3.07881
-3.2341
-3.30473
-3.24453
-2.99808
-2.4772
-1.60821
-0.651502
42.1843
42.4791
43.2844
44.7352
47.0662
50.7524
56.6858
66.5915
84.0532
128.105
206.28
374.756
513.984
165.516
149.204
98.3333
50.5676
25.3941
12.0771
4.71396
-1.03128
-28.8946
-26.5432
-25.1819
-24.4472
-23.4272
-22.3727
-21.4699
-20.7424
-20.1227
-19.5739
-19.0959
-18.6466
-18.1822
-17.6632
-17.0256
-16.143
-14.7563
-12.2896
-7.30597
37.7246
37.753
37.8875
38.2005
38.803
39.9066
41.9144
45.5939
52.45
84.7029
151.686
372.448
1814.53
248.201
82.7006
18.8546
-0.363473
-8.35425
-15.0764
-24.3975
-3.19508
-5.10181
-9.91295
-12.3371
-13.1584
-13.4541
-13.5988
-13.6617
-13.6441
-13.5623
-13.4501
-13.2728
-13.0349
-12.713
-12.2442
-11.5112
-10.2754
-8.0877
-4.25423
33.2763
33.0191
32.4306
31.5004
30.1741
28.3224
25.688
21.7009
14.9156
17.4539
7.38936
-116.748
-817.523
-849.206
-234.634
-76.991
-43.5536
-31.2472
-24.8789
-19.5985
-14.2717
-22.3035
-17.6736
-13.7232
-11.5367
-9.96887
-8.72309
-7.79132
-7.1164
-6.61893
-6.2415
-5.93811
-5.69303
-5.4687
-5.22157
-4.89675
-4.41802
-3.66661
-2.5057
-0.956989
29.1896
28.661
27.3965
25.3029
22.1958
17.6916
11.1045
1.18436
-14.4631
-32.5338
-86.3845
-195.456
-358.983
-378.811
-237.895
-132.883
-80.6761
-52.8506
-36.8833
-26.8029
-20.8227
-19.263
-12.7368
-7.64372
-5.13851
-3.84226
-2.97319
-2.36051
-1.95173
-1.68252
-1.49675
-1.36138
-1.25603
-1.15192
-1.02798
-0.860204
-0.619868
-0.279618
0.145136
0.455741
25.7933
25.047
23.2295
20.2025
15.7143
9.26471
0.0431269
-13.2684
-32.8457
-62.4161
-103.457
-155.694
-203.797
-211.895
-173.736
-124.288
-86.4655
-61.4596
-44.6867
-32.9639
-24.971
-20.2541
-14.9698
-10.7274
-7.98891
-6.14836
-4.74068
-3.62374
-2.75412
-2.08277
-1.5588
-1.14237
-0.810046
-0.534923
-0.298588
-0.0864802
0.110315
0.288824
0.413899
0.380559
23.3645
22.4713
20.2721
16.6135
11.2297
3.61961
-6.95851
-21.4945
-41.2075
-67.342
-99.9583
-135.683
-164.745
-172.053
-152.756
-119.977
-89.3993
-66.3206
-49.5262
-37.0405
-27.7372
-20.9047
-15.405
-11.0082
-7.72658
-5.34039
-3.57343
-2.24771
-1.25945
-0.530381
0.00599081
0.400874
0.690328
0.901018
1.0509
1.149
1.19428
1.17079
1.0365
0.691904
22.0999
21.1319
18.7404
14.7681
8.95502
0.821884
-10.2927
-25.1554
-44.4896
-68.5902
-96.4471
-124.463
-145.827
-152.29
-140.382
-116.507
-90.5882
-68.7745
-51.9721
-39.1204
-29.2745
-21.8185
-16.1435
-11.7492
-8.41762
-5.95913
-4.14344
-2.78035
-1.74756
-0.964525
-0.37072
0.0804518
0.422427
0.67807
0.861006
0.976628
1.02031
0.976485
0.818471
0.509608
53.6529
54.3667
56.1526
59.0494
63.0729
68.2908
74.7566
82.3857
90.8353
99.3426
106.564
110.551
109.312
102.084
90.3017
76.6971
63.3124
51.1339
40.6308
31.9686
25.0415
19.5921
15.3517
12.075
9.54887
7.58879
6.05867
4.86855
3.95052
3.24741
2.72147
2.30748
1.97963
1.7274
1.50517
1.29813
1.10068
0.873905
0.585532
0.206492
52.7169
53.4071
55.1378
57.9669
61.9423
67.1839
73.8292
81.9188
91.258
101.197
110.308
115.996
114.818
105.658
91.3936
76.1166
61.7469
49.0234
38.3806
29.8474
23.1422
17.9385
13.9073
10.8309
8.47932
6.64189
5.18873
4.04301
3.13999
2.4295
1.95733
1.56891
1.25255
0.989089
0.795595
0.646572
0.502253
0.350893
0.170898
-0.0322094
50.8844
51.5158
53.1197
55.7813
59.6027
64.7982
71.6687
80.5257
91.5535
104.498
117.725
127.122
125.814
111.999
93.1173
75.1484
58.9624
45.1402
34.1673
25.821
19.4293
14.8468
11.0829
8.22138
6.10335
4.48443
3.24125
2.31728
1.60628
1.09601
0.644601
0.332014
0.120357
-0.0175374
-0.102789
-0.136377
-0.125241
-0.0723089
-0.000716644
0.0307994
48.2187
48.7522
50.1317
52.4695
55.9239
60.8175
67.6655
77.2059
90.4217
108.505
133.027
155.034
156.4
132.202
104.037
81.3382
60.54
43.9874
31.8032
23.1504
12.1293
9.42446
6.31257
3.64348
1.54775
-0.091491
-1.36616
-2.33039
-2.97663
-3.43732
-3.77462
-3.98834
-4.10303
-4.14853
-4.12367
-4.00206
-3.76046
-3.34846
-2.68683
-1.60815
44.8427
45.228
46.2616
48.0594
50.8083
54.8917
60.9658
70.1336
84.2522
112.771
152.947
200.151
208.901
140.106
101.012
74.1347
47.5886
29.5376
18.1674
11.6837
10.0943
-2.00728
-3.64019
-4.77047
-6.08203
-7.1847
-7.9999
-8.7351
-9.16613
-9.43864
-9.61037
-9.70967
-9.69902
-9.58631
-9.42174
-9.11549
-8.59054
-7.69852
-6.18607
-3.65577
40.9374
41.1289
41.6844
42.7002
44.3371
46.9172
51.0378
57.8238
69.5577
103.246
162.576
290.502
394.243
101.176
114.905
60.1343
22.15
2.88024
-6.92127
-11.5074
-9.27086
-23.0099
-25.4253
-29.961
-31.5449
-31.5674
-31.1115
-30.3946
-29.7405
-29.0725
-28.386
-27.6663
-26.9643
-26.2586
-25.4434
-24.4654
-23.179
-21.2323
-17.8013
-10.8422
36.7543
36.7154
36.6882
36.7222
36.8844
37.2992
38.2036
40.0408
43.6658
67.77
118.833
301.369
1634.13
261.099
-13.4589
-57.717
-66.8051
-68.121
-66.9995
-62.5238
-35.5697
-34.5145
-36.7835
-37.1027
-36.2167
-35.1014
-34.0146
-33.0074
-32.044
-31.1089
-30.217
-29.3332
-28.4078
-27.4423
-26.3419
-24.9473
-22.8818
-19.2746
-11.8698
32.5928
32.3085
31.6577
30.6268
29.1596
27.1268
24.284
20.1362
13.5453
14.589
5.7691
-90.6514
-651.292
-646.196
-189.272
-80.057
-54.8779
-43.7768
-37.1749
-31.706
-29.2448
-31.5455
-26.875
-22.7694
-20.3546
-18.5395
-17.0824
-15.9507
-15.0722
-14.3729
-13.797
-13.3096
-12.8944
-12.4704
-12.0195
-11.4819
-10.7498
-9.62973
-7.76412
-4.43046
28.7757
28.2598
27.0241
24.9981
22.0275
17.7928
11.7391
2.9063
-10.3858
-25.6834
-68.4749
-151.6
-274.851
-291.346
-189.083
-111.954
-71.8869
-49.1995
-35.5131
-26.8737
-24.1374
-18.9489
-14.9243
-11.7461
-9.84889
-8.57967
-7.59633
-6.82373
-6.22293
-5.75033
-5.36761
-5.04687
-4.77325
-4.51284
-4.2411
-3.92783
-3.52689
-2.97233
-2.17291
-1.00873
25.6042
24.8997
23.1914
20.3653
16.2218
10.3607
2.13786
-9.45368
-26.0184
-50.2549
-82.9855
-123.469
-160.082
-167.826
-140.865
-104.186
-74.7904
-54.3383
-40.0219
-29.7154
-22.5266
-18.449
-14.7392
-11.6245
-9.29955
-7.55426
-6.17869
-5.07906
-4.20664
-3.51552
-2.96355
-2.51593
-2.15003
-1.83774
-1.55881
-1.29509
-1.03158
-0.754778
-0.45859
-0.133861
23.3371
22.5082
20.4699
17.102
12.1964
5.35221
-4.01643
-16.6673
-33.4868
-55.3118
-82.0154
-110.804
-134.265
-140.725
-126.754
-101.97
-77.8196
-58.8273
-44.5188
-33.6322
-25.3899
-19.3406
-14.6818
-10.9985
-8.18684
-6.08463
-4.49975
-3.29261
-2.37191
-1.6705
-1.13415
-0.721434
-0.402037
-0.152649
0.0429051
0.194059
0.301941
0.358977
0.348211
0.257082
22.1562
21.262
19.0593
15.42
10.1442
2.85061
-6.98279
-19.9426
-36.5448
-56.926
-80.1732
-103.356
-121.093
-126.95
-118.314
-99.7448
-79.0517
-61.0226
-46.6937
-35.4896
-26.7789
-20.135
-15.1175
-11.2844
-8.36956
-6.17537
-4.52051
-3.2601
-2.29394
-1.55201
-0.981522
-0.541331
-0.201312
0.0592306
0.25362
0.388297
0.460201
0.458467
0.372685
0.22578
51.622
52.1857
53.6027
55.8921
59.0432
63.077
67.9935
73.6761
79.8041
85.7517
90.506
92.7061
91.0331
85.0357
75.7401
65.0056
54.2775
44.3146
35.5351
28.1398
22.1118
17.3087
13.5682
10.7282
8.55805
6.86098
5.52463
4.4829
3.68063
3.06755
2.60178
2.23891
1.95287
1.72425
1.52951
1.34973
1.1639
0.941676
0.646893
0.237518
50.7356
51.2735
52.6352
54.8512
57.934
61.9391
66.92
72.8356
79.4453
86.1669
91.8898
94.8109
92.9194
85.6552
74.9808
63.4581
52.3518
42.2094
33.4521
26.2263
20.3978
15.7622
12.1991
9.60021
7.65386
6.13084
4.92716
3.98156
3.24057
2.66312
2.22276
1.87177
1.5899
1.36148
1.17634
1.01866
0.86672
0.69766
0.478261
0.16658
48.9991
49.4806
50.7207
52.7663
55.67
59.5484
64.5558
70.8101
78.2741
86.5536
94.4602
99.1854
96.4822
85.7628
72.2328
59.4934
47.7304
37.1649
28.3409
21.2952
15.6737
11.3315
8.61
6.69376
5.09486
3.79866
2.82423
2.1166
1.6014
1.22885
0.949522
0.753281
0.620258
0.532284
0.479559
0.459635
0.467026
0.487309
0.478777
0.316776
46.4835
46.8731
47.9055
49.6465
52.1826
55.7013
60.4829
66.8773
75.2453
85.8138
97.1113
105.848
101.12
83.1222
66.2056
52.9752
40.7598
30.2707
22.0245
15.4485
8.98916
2.78828
2.7673
3.07796
2.40483
1.45087
0.618126
-0.0463454
-0.557311
-0.953432
-1.25754
-1.47453
-1.61514
-1.69356
-1.7078
-1.64122
-1.47711
-1.19229
-0.781823
-0.325655
43.3139
43.5705
44.2919
45.5528
47.4456
50.2004
54.1644
59.8599
67.9975
87.3507
107.721
128.695
124.29
84.035
61.6881
48.2401
32.0346
19.778
11.6987
6.30868
1.06152
-12.9316
-10.6375
-7.76965
-6.49797
-5.89875
-5.51893
-5.28167
-5.11798
-5.01151
-4.94252
-4.88731
-4.82531
-4.74493
-4.61547
-4.38706
-3.99649
-3.34463
-2.3319
-1.02718
39.6556
39.7496
40.0564
40.6397
41.5829
43.0555
45.3516
48.9588
54.7018
75.4528
101.94
147.243
167.677
27.3368
23.3343
6.17565
-4.07207
-8.79918
-11.9367
-13.9953
-19.6327
-11.9503
-13.8469
-16.0655
-16.8284
-16.9534
-16.8879
-16.7279
-16.5273
-16.2809
-15.9882
-15.636
-15.253
-14.8366
-14.3264
-13.6684
-12.7578
-11.3665
-9.06141
-5.12565
35.7592
35.6551
35.4671
35.2233
34.944
34.664
34.4399
34.3443
34.4346
47.8572
59.2827
129.494
170.031
-704.894
-136.085
-95.9754
-69.3107
-61.8981
-56.4368
-52.546
-67.0802
-39.4958
-37.4252
-35.546
-33.741
-31.9088
-30.2578
-28.828
-27.5832
-26.4747
-25.4695
-24.5476
-23.6871
-22.8289
-21.9387
-20.9506
-19.7456
-18.038
-15.2007
-9.62415
31.8915
31.5822
30.8698
29.738
28.1287
25.9068
22.8236
18.4114
11.7287
10.3226
-10.6852
-78.5302
-300.923
-255.261
-109.525
-62.2857
-40.6658
-29.8911
-23.5897
-18.6538
-10.5133
4.82743
2.01924
-1.67951
-3.32469
-4.08864
-4.57194
-4.91004
-5.13868
-5.28536
-5.37206
-5.41955
-5.42129
-5.35212
-5.19605
-4.9289
-4.48294
-3.73263
-2.51739
-0.883719
28.3542
27.8499
26.6466
24.6879
21.8519
17.8793
12.3273
4.43712
-7.19632
-25.4233
-48.6173
-102.015
-172.651
-186.509
-131.439
-85.4132
-58.0194
-40.6512
-29.3729
-21.3024
-10.9128
-1.69798
-2.55359
-3.99044
-4.05372
-3.63088
-3.20433
-2.84025
-2.52751
-2.26197
-2.03871
-1.84711
-1.67969
-1.52348
-1.34844
-1.13382
-0.855178
-0.479344
-0.0141755
0.359915
25.4167
24.7559
23.1533
20.5284
16.7313
11.4561
4.22661
-5.66646
-19.2368
-37.7818
-62.0732
-90.3031
-115.039
-121.737
-106.275
-82.4286
-61.4919
-45.7694
-34.0563
-24.9304
-17.3041
-12.1056
-9.18753
-7.09713
-5.25134
-3.73843
-2.59785
-1.75262
-1.12064
-0.646283
-0.289344
-0.0177225
0.190283
0.356561
0.503228
0.641399
0.77533
0.896029
0.952749
0.781127
23.3171
22.5509
20.6754
17.5991
13.1727
7.09495
-1.06427
-11.831
-25.7507
-43.1817
-63.7404
-85.3836
-102.682
-108.367
-99.8821
-83.0165
-65.4096
-50.6179
-38.8846
-29.5496
-22.0699
-16.2697
-11.8323
-8.56459
-6.1225
-4.27215
-2.8734
-1.81541
-1.01107
-0.396997
0.0724817
0.431805
0.706397
0.915495
1.07236
1.18325
1.24367
1.23348
1.10437
0.752681
22.2238
21.4043
19.3893
16.0853
11.3497
4.89698
-3.65588
-14.7119
-28.5741
-45.1974
-63.7349
-81.9377
-95.8333
-100.954
-95.4701
-82.2959
-66.7765
-52.5636
-40.7812
-31.2508
-23.6037
-17.5829
-12.9618
-9.48621
-6.85257
-4.82511
-3.26024
-2.05745
-1.13554
-0.429674
0.1097
0.520137
0.830004
1.05917
1.21974
1.31677
1.34354
1.28046
1.08894
0.704012
49.6749
50.1006
51.179
52.9142
55.2714
58.2351
61.7648
65.728
69.8408
73.6152
76.3333
77.1114
75.166
70.2943
63.1672
54.9452
46.5777
38.633
31.4734
25.3203
20.2325
16.1514
12.9662
10.5222
8.61787
7.09777
5.88042
4.91584
4.15886
3.56646
3.10207
2.73352
2.43503
2.18527
1.96394
1.75035
1.51894
1.23759
0.86506
0.348954
48.8349
49.2353
50.2585
51.9181
54.1911
57.0843
60.5869
64.6059
68.8928
72.9655
76.031
76.9887
74.7745
69.218
61.467
52.9838
44.5782
36.6674
29.6285
23.6849
18.8428
15.0138
12.1018
9.90659
8.18459
6.79409
5.67322
4.77564
4.05621
3.47721
3.01087
2.63251
2.32083
2.05808
1.82835
1.61564
1.39692
1.14069
0.802649
0.325781
47.1924
47.5396
48.444
49.9349
52.0117
54.7161
58.0923
62.1252
66.6512
71.2305
74.948
76.2127
73.1439
65.8059
56.8668
48.2426
40.0238
32.2624
25.4574
19.8631
15.4174
12.0812
9.85604
8.12554
6.58642
5.28549
4.26882
3.49766
2.91241
2.46536
2.12263
1.86018
1.66052
1.50817
1.39016
1.29564
1.20812
1.09748
0.902982
0.494813
44.8224
45.0862
45.7999
47.0007
48.7189
51.0277
54.0344
57.827
62.3916
67.4343
72.0101
73.7576
68.9712