/*--------------------------------*- C++ -*----------------------------------*\
| =========                 |                                                 |
| \\      /  F ield         | OpenFOAM: The Open Source CFD Toolbox           |
|  \\    /   O peration     | Version:  2306                                  |
|   \\  /    A nd           | Website:  www.openfoam.com                      |
|    \\/     M anipulation  |                                                 |
\*---------------------------------------------------------------------------*/
FoamFile
{
    version     2.0;
    format      ascii;
    arch        "LSB;label=32;scalar=64";
    class       surfaceScalarField;
    location    "0.45";
    object      phi;
}
// * * * * * * * * * * * * * * * * * * * * * * * * * * * * * * * * * * * * * //

dimensions      [0 3 -1 0 0 0 0];

oriented        oriented;

internalField   nonuniform List<scalar> 
338621
(
24.9952
0.00218932
0.00125015
24.9878
0.00479871
0.00260775
24.9758
0.00772933
0.0041709
24.9589
0.0108389
0.00608545
24.9359
0.0142388
0.00866493
24.9034
0.0203434
0.0120759
24.857
0.0299435
0.0164346
24.7943
0.0406689
0.0220469
24.7326
0.0326307
0.0291353
24.6895
0.00564734
0.0375807
24.6611
-0.0184653
0.0471831
24.5868
0.0172363
0.0573507
24.6152
-0.0955524
0.0676246
24.7456
-0.207114
0.0770404
24.7877
-0.126878
0.0850747
24.8205
-0.124158
0.0915548
24.8497
-0.125823
0.0966933
24.8731
-0.124497
0.101019
24.8926
-0.12408
0.104571
24.9189
-0.133921
0.107555
24.9482
-0.139177
0.109833
24.9702
-0.133824
0.111734
24.9869
-0.130049
0.113343
25.0004
-0.128088
0.114541
25.0118
-0.126868
0.115483
25.0213
-0.125715
0.116195
25.0296
-0.124934
0.116627
25.0368
-0.123969
0.1168
25.0429
-0.12299
0.116843
25.0484
-0.122276
0.116764
25.0534
-0.121605
0.11658
25.0582
-0.121017
0.116297
25.0626
-0.120468
0.116054
25.0667
-0.119983
0.11585
25.0706
-0.119599
0.115657
25.0748
-0.119635
0.115512
25.079
-0.119602
0.115368
25.0834
-0.119693
0.115299
25.0881
-0.119956
0.115251
-0.120659
0.11498
24.9951
0.00438052
0.00122342
24.9876
0.00975194
0.00252464
24.9753
0.0159968
0.00407314
24.9581
0.0219346
0.00597272
24.9351
0.0286922
0.00853093
24.9058
0.0377454
0.011836
24.8704
0.0491023
0.0162436
24.8249
0.0642287
0.021946
24.7605
0.0678381
0.0292254
24.6859
0.042291
0.0381262
24.6429
-0.0237938
0.0485826
24.6293
-0.0285398
0.0596897
24.6677
-0.205036
0.0714479
24.752
-0.372962
0.0819673
24.8328
-0.297976
0.0905349
24.9017
-0.29015
0.0972161
24.9543
-0.280922
0.102457
24.9966
-0.273602
0.106772
25.0414
-0.279295
0.110322
25.075
-0.280667
0.113114
25.0947
-0.274195
0.115312
25.1083
-0.264541
0.117061
25.1172
-0.257633
0.118618
25.1241
-0.254792
0.119844
25.1291
-0.252677
0.120801
25.1329
-0.251031
0.121471
25.1353
-0.249264
0.121925
25.1373
-0.248135
0.122141
25.1392
-0.247062
0.122187
25.1406
-0.245752
0.1221
25.1418
-0.244725
0.121911
25.1426
-0.243525
0.12166
25.1437
-0.242946
0.121408
25.1448
-0.242256
0.121171
25.146
-0.24177
0.12096
25.1473
-0.241794
0.120828
25.1489
-0.241865
0.120683
25.1508
-0.242244
0.120624
25.1535
-0.243162
0.120547
-0.243753
0.12029
24.9955
0.00626138
0.00116358
24.988
0.0148126
0.00240742
24.9762
0.0238589
0.00385843
24.9584
0.0339177
0.0057521
24.9343
0.0445712
0.00822863
24.9033
0.0572142
0.0114908
24.8636
0.072871
0.0159379
24.8146
0.0914609
0.0217629
24.7458
0.107245
0.0294544
24.6477
0.101048
0.0393297
24.5708
0.00587267
0.0514443
-0.00543173
0.00587975
-0.00448842
24.6671
-0.0380483
0.0653623
-0.0577267
-0.0371777
-0.056988
24.5595
-0.0103061
0.078319
-0.0945379
0.0224007
-0.092929
24.7329
-0.181201
0.0901971
-0.122813
-0.211071
-0.121063
24.8271
-0.127607
0.0987656
-0.120021
-0.125518
-0.11767
24.8885
-0.116355
0.105063
-0.114264
-0.113915
-0.112158
24.9427
-0.112285
0.109975
-0.112461
-0.110465
-0.110052
25.0085
-0.114803
0.114066
-0.113796
-0.112929
-0.11203
25.0512
-0.111369
0.117425
-0.110053
-0.109631
-0.108474
25.0765
-0.107792
0.119913
-0.106853
-0.106098
-0.105189
25.094
-0.413321
0.12165
25.1071
-0.400792
0.123131
25.1149
-0.390132
0.124684
25.1206
-0.386652
0.126098
25.1251
-0.384387
0.127233
25.1282
-0.382134
0.128004
25.1301
-0.379567
0.128426
25.1315
-0.378145
0.128539
25.132
-0.375968
0.128394
25.1328
-0.374516
0.128053
25.133
-0.372562
0.127576
25.1334
-0.370928
0.127028
25.1335
-0.369459
0.126421
25.1337
-0.368461
0.125944
25.1338
-0.367276
0.125462
25.1339
-0.366994
0.125114
25.1344
-0.367184
0.124799
25.1352
-0.367668
0.124599
25.1362
-0.368554
0.124421
-0.369671
0.124145
24.9957
0.0084461
0.00107327
24.9891
0.0191623
0.00222988
24.9775
0.0318697
0.00355966
24.9608
0.0451956
0.00536562
24.9365
0.0612272
0.00768806
24.9023
0.0805838
0.0108324
24.8569
0.103065
0.0151553
24.7989
0.128474
0.0209836
24.7324
0.144813
0.0289579
6.14184
0.0373181
0.0397948
0.0546056
0.0383185
0.0545369
6.16386
6.14118
6.16192
6.12419
0.0176908
0.00583345
-6.11104
6.09883
-0.0335166
0.00770063
-6.10271
6.1242
-0.0413278
0.00955637
-6.11653
6.14359
-0.219567
0.0113322
-6.1625
6.17696
-0.154521
0.0124681
-6.19043
6.2013
-0.140327
0.0131024
-6.21279
6.22723
-0.140387
0.0136519
-6.2393
6.2466
-0.136278
0.0141756
-6.25246
6.25768
-0.131227
0.0146362
-6.26207
6.26602
-0.126785
0.0150387
25.1056
-0.138768
0.126391
-0.140028
-0.138082
-0.139857
-6.26957
-6.2743
-6.27004
-6.27467
25.1102
-0.533109
0.127727
25.1119
-0.52147
0.129619
25.1138
-0.519926
0.131423
25.1138
-0.517278
0.132911
25.1123
-0.514576
0.133936
25.1106
-0.512413
0.13448
25.108
-0.510114
0.134578
25.1048
-0.50706
0.134293
25.1012
-0.504565
0.133709
25.0974
-0.501717
0.132917
25.0933
-0.498849
0.132013
25.0888
-0.496021
0.131043
25.0843
-0.494144
0.130237
25.0796
-0.492097
0.12945
25.0746
-0.490803
0.128839
25.0695
-0.490324
0.128297
25.0642
-0.490253
0.127835
25.0599
-0.491635
0.127424
-0.49241
0.12691
24.9973
0.00898217
0.000950915
24.9915
0.0230046
0.00198334
24.9818
0.0383373
0.00316576
24.9665
0.0557095
0.0047834
24.9438
0.0770704
0.00686085
24.9106
0.104139
0.00968471
24.8608
0.139262
0.0135672
24.7867
0.183581
0.018992
6.17155
0.233708
0.0264721
6.16422
6.17137
6.16422
6.15544
0.0494572
0.00397231
6.12992
0.00562389
-6.15793
0.0202767
0.0119688
0.0117837
0.0204098
-0.0420547
-6.07704
6.04268
0.00765792
-0.00192319
0.00428708
0.00396298
-0.00180897
0.0222073
-6.04217
6.0606
0.00977747
0.0293398
-0.0400115
-0.040138
-0.0189569
0.0416007
-6.11337
6.13916
0.0117768
-0.0516132
-0.0663617
-0.104289
-0.051997
0.236716
-6.17212
6.18443
0.0121355
-0.0495834
-0.0535055
-0.0529395
-0.0498349
0.181428
-6.19633
6.20984
0.0120552
-0.0492172
-0.0485595
-0.0484974
-0.0492868
0.169983
-6.2234
6.23517
0.0122244
-0.0470252
-0.0470821
-0.046924
-0.0472126
0.16423
-6.24476
6.25197
0.0126606
-0.044296
-0.0442998
-0.0440714
-0.0445226
0.157306
-6.25831
6.26283
0.0132546
-0.0418693
-0.0421224
-0.0419066
-0.0420781
0.150208
-6.26681
6.26883
0.0139202
-0.0398781
-0.0403026
-0.0401216
-0.0400506
0.144425
-6.2718
6.27358
-0.155403
0.0148674
25.0557
-0.617311
0.11806
-6.27418
-6.26854
-6.27543
-6.27142
25.0293
-0.615638
0.120638
25.0008
-0.613349
0.121922
24.9723
-0.61093
0.122128
24.9455
-0.609275
0.121523
24.9201
-0.60734
0.120271
24.8962
-0.604714
0.118528
24.8743
-0.601648
0.116468
24.8536
-0.598089
0.114244
24.8343
-0.594439
0.112005
24.8164
-0.590784
0.109873
24.7996
-0.587125
0.107906
24.783
-0.583879
0.106279
24.7672
-0.581196
0.104893
24.7517
-0.57904
0.103769
24.7364
-0.57781
0.102812
24.7218
-0.577573
0.10191
24.7081
-0.578889
0.100971
-0.582568
0.0998087
24.9999
0.00756694
0.000803915
24.9966
0.0246151
0.00168149
24.9891
0.0431429
0.00268588
24.9774
0.0634272
0.00397984
24.9598
0.0889126
0.00569853
24.9328
0.123159
0.00797397
24.8898
0.171251
0.011041
24.8175
0.240532
0.0153595
6.17092
0.347461
0.0212224
6.17047
6.17093
6.17031
-0.065419
6.14529
0.0878648
0.00319551
-0.0197199
-1.52765
1.52249
0.0242712
0.000604589
-0.0195539
-1.50425
1.49211
0.0309409
0.000753146
-1.46861
0.0520508
1.47857
-0.0630893
0.00108814
-1.53053
0.0840964
1.53948
-0.0940629
0.00102482
-1.53826
0.0591712
-0.0618778
0.000785826
1.54018
-1.54917
0.0560313
-0.0590296
0.00051301
1.55166
0.0529753
-1.55727
1.5587
-0.0549279
0.000517203
0.0488197
-1.56164
1.5622
-0.0501833
0.000803348
0.0460923
-1.56288
1.56297
-0.0474028
0.00122322
0.0438003
-1.56229
1.56188
-0.0449761
0.00159332
-1.55588
0.166206
6.17014
-0.152225
0.0130984
-1.54063
-1.55706
-1.54366
23.8742
-0.696268
0.0618993
-6.10979
-5.80818
-6.12252
-5.81662
23.8795
-0.686464
0.0654933
23.8822
-0.682323
0.0663401
23.8849
-0.678779
0.0651573
23.8882
-0.675518
0.0629195
23.8927
-0.672028
0.0601834
23.8988
-0.668168
0.0573074
23.9066
-0.663933
0.0545248
23.916
-0.65945
0.0519777
23.9266
-0.654815
0.0497446
23.9381
-0.650124
0.0478542
23.9503
-0.645633
0.0462723
23.9628
-0.641367
0.0450162
23.9751
-0.637453
0.0439492
23.9873
-0.63422
0.0429709
23.9991
-0.631576
0.0419405
24.0106
-0.629673
0.0406848
24.0212
-0.628563
0.0390232
-0.627901
0.0368877
25.003
0.0037025
0.000636109
25.0035
0.0227436
0.00132318
25.0007
0.0439135
0.00211242
24.9949
0.0660951
0.0030431
24.9861
0.0934852
0.0042375
24.9725
0.130957
0.00578746
24.9528
0.183278
0.00771263
24.9216
0.261554
0.010184
6.21314
0.387822
0.0131346
6.22119
6.21286
6.22092
-0.106178
6.19772
0.119703
0.00189677
-0.0393616
-1.54202
1.53587
0.0451847
0.000326411
-0.0822171
-1.50646
1.48798
0.100377
0.000318155
0.00439021
-0.0746907
0.0748733
-0.00460504
3.22864e-05
-0.0214147
0.000448214
0.0209273
1.80282e-06
3.73772e-05
-0.217853
0.0140965
-0.0246141
-0.000769552
0.22914
-1.13801
0.0462144
-0.0663474
-0.00162471
1.15977
0.0424124
-1.20933
1.22154
-0.0517097
-0.00290996
0.0441694
-1.25956
1.27215
-0.0529388
-0.00382156
0.0447285
-1.30535
1.3155
-0.0508048
-0.00407173
0.0453186
-1.34134
1.34999
-0.0505676
-0.00339509
-1.39114
0.176723
5.79334
-0.208993
-0.0151453
-1.49261
-1.37555
-1.48662
24.0315
-0.654377
-0.0899593
-5.85221
-6.16759
-5.79976
-6.16384
24.0698
-0.632256
-0.0925558
24.1042
-0.62334
-0.0934129
24.1358
-0.616959
-0.0933281
24.1636
-0.610943
-0.0924138
24.1879
-0.605546
-0.0908296
24.2094
-0.600735
-0.088867
24.2284
-0.596263
-0.0866491
24.2454
-0.592141
-0.0843692
24.2611
-0.588329
-0.082146
24.2759
-0.584824
-0.0800967
24.2902
-0.581745
-0.0782221
24.3045
-0.579037
-0.0766578
24.3191
-0.576702
-0.0753459
24.334
-0.574685
-0.0743883
24.3494
-0.573164
-0.0738419
24.3653
-0.571799
-0.0737596
24.3813
-0.570267
-0.0742402
-0.567596
-0.0752838
25.0047
-0.0011683
0.000468316
25.0099
0.0165912
0.000962614
25.0147
0.037589
0.00149614
25.0185
0.0601727
0.0020861
25.0203
0.0890264
0.00270924
25.0252
0.122653
0.00342354
25.0371
0.16732
0.00407803
25.0627
0.231382
0.00447806
6.274
0.332324
0.00428204
6.28173
6.27426
6.28393
-0.111759
6.28169
0.103598
0.000454418
-0.0445883
-1.57783
1.57952
0.0428719
2.48384e-05
-0.0839712
-1.598
1.61293
-0.00015614
0.0691999
-0.0258067
-1.71196
1.75031
-0.000956719
0.0564203
-0.0210577
-0.0258943
-0.0210557
0.0967515
-1.71149
1.68232
-0.000597767
-0.0669844
0.0982695
-1.60916
-0.000570024
1.59878
-0.0873223
0.0742437
-1.5846
-0.000758076
1.58177
-0.0706586
0.0532621
-1.57731
1.57642
-0.051482
-0.000885927
0.0542973
-1.57473
1.57294
-0.0514613
-0.00104305
0.0490531
-1.57256
1.57191
-0.0471858
-0.00121849
0.0459305
-1.57095
1.57044
-0.0440301
-0.00138663
-1.568
0.173254
6.26567
-0.155605
-0.0127127
-1.56748
-1.56764
-1.56749
25.0698
-0.537968
-0.109608
-6.26904
-6.26857
-6.27022
-6.26878
25.0703
-0.520858
-0.111896
25.0675
-0.507177
-0.113406
25.0644
-0.49925
-0.114533
25.062
-0.493141
-0.115397
25.0604
-0.488049
-0.11592
25.0594
-0.483566
-0.116185
25.0586
-0.479303
-0.116141
25.0583
-0.475956
-0.115858
25.058
-0.4727
-0.115375
25.0576
-0.469634
-0.114797
25.0573
-0.467414
-0.114036
25.057
-0.465341
-0.113335
25.0562
-0.463321
-0.11264
25.0558
-0.462141
-0.112138
25.0555
-0.460958
-0.111906
25.0555
-0.459786
-0.112021
25.0561
-0.458252
-0.112576
-0.45645
-0.113486
25.0056
-0.00608755
0.000279511
25.0139
0.0077298
0.000596685
25.0267
0.0238973
0.000906876
25.0377
0.0479431
0.00115449
25.0528
0.0726673
0.00129334
25.076
0.0982668
0.00122025
25.1136
0.128998
0.000766333
25.1765
0.169044
-0.000525516
6.32002
0.231214
-0.00315344
6.31811
6.32425
6.31837
-0.088889
6.33603
0.0735742
-0.000699336
-0.0332567
6.4123
0.0881467
-0.00163145
-0.0344405
-0.0334251
-0.0340768
-6.36361
-0.0334368
6.5156
0.0764385
-0.00346028
-0.0261728
-0.0334134
-0.0262052
-6.46936
-0.00755497
-6.5459
6.51212
-0.0044395
-0.00610665
0.0147456
-0.00790121
0.0450089
0.0445229
-6.53408
6.51274
-0.120559
-0.00875118
0.0383482
0.0351324
0.0326136
0.0538171
-6.44869
6.41151
-0.173788
-0.0106553
0.0544115
0.0561556
0.0572155
0.0550296
-6.37201
6.34036
-0.171629
-0.011853
0.0537412
0.0540066
0.0523593
0.045289
-6.32266
6.3118
-0.153633
-0.0127018
0.0443764
0.0440772
0.0434689
0.0434022
-6.30333
6.29753
-0.153158
-0.0133145
0.0432067
0.042912
0.0427518
0.0405758
-6.29304
6.28756
-0.140982
-0.0137244
0.040112
0.04004
0.039461
0.0378407
-6.28312
6.27745
-0.129586
-0.0140113
0.037407
0.0372929
0.0367224
0.140469
-6.2756
6.27343
-0.124
-0.0143068
25.0699
-0.405611
-0.121144
-6.27053
-6.27043
-6.27052
-6.26965
25.061
-0.390138
-0.12185
25.0566
-0.380218
-0.122519
25.0537
-0.373283
-0.123076
25.0521
-0.368156
-0.123403
25.0514
-0.363844
-0.123436
25.0513
-0.360333
-0.123186
25.052
-0.357265
-0.12269
25.0527
-0.354605
-0.122002
25.0534
-0.352287
-0.121182
25.0542
-0.350056
-0.120327
25.0548
-0.348624
-0.11944
25.055
-0.346942
-0.118578
25.0556
-0.346077
-0.117875
25.0559
-0.345082
-0.117366
25.0561
-0.344032
-0.117082
25.0569
-0.343505
-0.117098
25.0589
-0.342769
-0.117474
-0.342197
-0.118229
25.0061
-0.0109931
0.000184706
25.0158
-0.00224069
0.000361137
25.0244
0.0148455
0.000440256
25.0407
0.0312729
0.000426227
25.067
0.0462219
0.000154357
25.1001
0.0656936
-0.000511384
25.1473
0.0836925
-0.00180613
25.2133
0.107233
-0.00420132
25.3218
0.131126
-0.00837862
25.4266
0.145287
-0.0152978
-0.0613739
-0.0570864
-0.0587173
-0.057506
25.5747
0.133796
-0.0258991
-0.0610201
-0.0645801
-0.0622427
-0.0681522
25.7093
0.057597
-0.0407284
-0.0427023
-0.0290254
-0.0467703
-0.0332469
25.5889
-0.152283
-0.0580069
0.0199863
0.122576
0.0180556
0.169698
25.4986
-0.232469
-0.07588
0.0813656
0.114706
0.0967241
0.105398
25.4318
-0.242713
-0.0904364
0.0805952
0.145866
0.0291467
0.144073
25.3476
-0.347136
-0.101009
0.132832
0.135788
0.131012
0.132793
25.2642
-0.317767
-0.10789
0.126763
0.130519
0.12425
0.127588
25.198
-0.328888
-0.1125
0.130124
0.127277
0.126805
0.12355
25.1541
-0.308924
-0.115616
0.12047
0.117517
0.117113
0.113413
25.1292
-0.290911
-0.117747
0.110272
0.11024
0.105647
0.107411
25.1087
-0.2772
-0.119191
0.105975
0.105434
0.103342
0.102157
25.0907
-0.26766
-0.119998
25.0798
-0.258584
-0.120622
25.0729
-0.252056
-0.121214
25.0681
-0.246779
-0.121743
25.0647
-0.24274
-0.122023
25.0629
-0.239859
-0.122127
25.0613
-0.236674
-0.122063
25.0605
-0.234583
-0.121856
25.0597
-0.232299
-0.121545
25.0594
-0.230785
-0.121162
25.0594
-0.229292
-0.120756
25.0589
-0.227767
-0.120374
25.0589
-0.226947
-0.119972
25.0583
-0.225821
-0.119735
25.058
-0.225105
-0.119606
25.0583
-0.224709
-0.119655
25.0591
-0.224341
-0.119925
25.0599
-0.223157
-0.120458
-0.222316
-0.121251
25.0064
-0.0156256
8.9012e-05
25.0093
-0.00524424
0.000165269
25.0167
0.00734639
0.000120645
25.0359
0.0121471
-6.26415e-05
25.061
0.0217339
-0.000581012
25.09
0.0383763
-0.00163356
25.1376
0.0396209
-0.00343921
25.1985
0.0527907
-0.00640386
25.2773
0.0634178
-0.0111859
25.3731
0.0678262
-0.0183702
25.4803
0.0548593
-0.0284913
25.5614
0.0179743
-0.0418474
25.5403
-0.0744561
-0.0571584
25.5277
-0.147819
-0.0724201
25.4064
-0.0362891
-0.0854745
25.3249
-0.170097
-0.095678
25.2752
-0.165346
-0.102755
25.2137
-0.159388
-0.107891
25.1683
-0.152014
-0.111466
25.1357
-0.144179
-0.114033
25.1115
-0.13711
-0.115883
25.0927
-0.131757
-0.117088
25.0793
-0.127246
-0.117974
25.0698
-0.123941
-0.118574
25.0633
-0.121246
-0.118972
25.0589
-0.119297
-0.119038
25.0554
-0.117465
-0.118926
25.0535
-0.116135
-0.118652
25.0524
-0.115244
-0.11818
25.0517
-0.114012
-0.117629
25.0514
-0.113428
-0.117019
25.051
-0.112484
-0.116408
25.0512
-0.112148
-0.115799
25.051
-0.111477
-0.115278
25.0514
-0.111293
-0.11489
25.0516
-0.110727
-0.114632
25.0522
-0.110717
-0.11454
25.053
-0.110497
-0.114656
25.0549
-0.110101
-0.115024
-0.110665
-0.115699
24.9867
6.0782e-05
24.9813
0.000129536
24.9887
1.62003e-05
25.0011
-0.000178685
25.0237
-0.000835363
25.0642
-0.00199286
25.1078
-0.00395308
25.1678
-0.00712902
25.2432
-0.0120796
25.3301
-0.0191687
25.4135
-0.0287551
25.472
-0.0409247
25.4517
-0.0546011
25.3718
-0.0682877
25.4156
-0.0803954
25.3359
-0.0904968
25.2683
-0.0977655
25.2119
-0.102936
25.1666
-0.10667
25.1319
-0.109405
25.1062
-0.111426
25.0874
-0.112832
25.0739
-0.113786
25.0643
-0.114347
25.0578
-0.114707
25.0533
-0.114777
25.0505
-0.114656
25.0488
-0.114436
25.0476
-0.113981
25.047
-0.113491
25.0466
-0.112987
25.0466
-0.112445
25.0463
-0.111925
25.0464
-0.111507
25.0463
-0.111262
25.0468
-0.111135
25.0472
-0.111158
25.0481
-0.111372
25.0498
-0.111825
-0.112578
24.996
0.00107646
0.00245604
24.9896
0.00384241
0.00504836
24.9792
0.00643708
0.00808876
24.9636
0.0096113
0.0118873
24.9428
0.0125249
0.0168
24.9141
0.0173804
0.0232773
24.8728
0.0258664
0.0317433
24.8161
0.0361675
0.0426334
24.7609
0.0282386
0.056263
24.7248
0.00123992
0.0729248
24.6994
-0.0185902
0.0918385
24.6364
0.00920134
0.11231
24.6643
-0.0919126
0.132842
24.7818
-0.191291
0.152053
24.8144
-0.114931
0.16833
24.8382
-0.113089
0.181272
24.8607
-0.117104
0.191428
24.879
-0.116934
0.199636
24.8947
-0.117628
0.206313
24.9211
-0.13074
0.21175
24.9477
-0.132961
0.216037
24.9685
-0.128702
0.219519
24.9851
-0.125703
0.222338
24.9991
-0.124061
0.22457
25.0108
-0.12255
0.226276
25.021
-0.12161
0.2275
25.0298
-0.12045
0.228295
25.0372
-0.119355
0.228709
25.0438
-0.118572
0.228843
25.0496
-0.117855
0.22878
25.0546
-0.116956
0.228568
25.0587
-0.116138
0.228277
25.0627
-0.115922
0.227944
25.0667
-0.115798
0.227694
25.0702
-0.115281
0.22746
25.0738
-0.115439
0.227354
25.0774
-0.115463
0.227207
25.0812
-0.11569
0.227171
25.0857
-0.116297
0.227025
-0.116877
0.226238
24.996
0.00225715
0.00239423
24.9896
0.00776134
0.00493206
24.9786
0.0135321
0.00792277
24.963
0.0193664
0.0116813
24.9416
0.025693
0.0165635
24.9146
0.0330808
0.0230427
24.8821
0.0429284
0.0315789
24.8401
0.0574011
0.0427244
24.7778
0.0629466
0.0569925
24.7023
0.0404968
0.0747701
24.6589
-0.0216461
0.0956579
24.5964
0.0137478
0.118693
24.6314
-0.196116
0.141849
24.7639
-0.403945
0.163184
24.8453
-0.285513
0.180538
24.9133
-0.277532
0.193964
24.963
-0.268888
0.20445
25.0025
-0.262579
0.212768
25.0469
-0.271414
0.21948
25.0785
-0.274099
0.224752
25.0969
-0.265063
0.228867
25.11
-0.257001
0.232183
25.1188
-0.25087
0.234906
25.1255
-0.248
0.237046
25.131
-0.245917
0.238673
25.1347
-0.243759
0.239848
25.1373
-0.241766
0.240648
25.1396
-0.240741
0.241132
25.1413
-0.239388
0.241362
25.1423
-0.238165
0.241393
25.1433
-0.237326
0.241276
25.1444
-0.236629
0.241065
25.1448
-0.235844
0.240856
25.1453
-0.235719
0.240638
25.1463
-0.235797
0.240463
25.147
-0.235604
0.240334
25.1481
-0.236181
0.240231
25.15
-0.237042
0.240131
25.1519
-0.237664
0.23998
-0.238956
0.239158
24.996
0.0035516
0.00227661
24.9897
0.0116948
0.00470587
24.9787
0.0206792
0.00758755
24.9625
0.0299853
0.0112339
24.94
0.0402754
0.0160144
24.9105
0.0515645
0.0224331
24.873
0.0652925
0.0310522
24.8269
0.0826325
0.0425888
24.7616
0.0999017
0.0578797
24.6669
0.0970807
0.0776803
24.5884
0.005822
0.102206
-0.00367061
0.00609685
-0.00188269
24.7212
-0.0366688
0.129935
-0.0567821
-0.034985
-0.0542787
24.5793
0.0233716
0.157536
-0.0929269
0.0264193
-0.0890055
24.7431
-0.212425
0.182543
-0.121593
-0.208303
-0.116696
24.8351
-0.126175
0.200696
-0.118357
-0.121432
-0.112928
24.8948
-0.114978
0.213828
-0.113215
-0.110176
-0.107772
24.9474
-0.111822
0.224004
-0.111293
-0.106799
-0.106062
25.0116
-0.114207
0.232088
-0.113378
-0.109287
-0.108384
25.0533
-0.111239
0.238495
-0.110302
-0.106647
-0.106319
25.0791
-0.108424
0.243319
-0.107178
-0.104665
-0.1031
25.0975
-0.408605
0.246752
25.11
-0.396088
0.249657
25.118
-0.386393
0.252121
25.1237
-0.382373
0.254734
25.1278
-0.379384
0.256559
25.1305
-0.376493
0.258064
25.1324
-0.373787
0.258576
25.133
-0.371779
0.258923
25.1331
-0.370059
0.258912
25.1337
-0.369317
0.258614
25.1334
-0.367496
0.258097
25.1332
-0.366868
0.257442
25.1336
-0.366325
0.256484
25.1334
-0.365594
0.256035
25.1331
-0.365442
0.255383
25.1333
-0.365469
0.254816
25.1335
-0.365952
0.254317
25.134
-0.36674
0.253849
25.1352
-0.367869
0.253391
-0.369087
0.252377
24.9969
0.00459834
0.00209792
24.9908
0.0156184
0.00435525
24.9799
0.0279361
0.00704411
24.9639
0.0408727
0.0104679
24.9411
0.05561
0.0150022
24.9084
0.0738867
0.0211652
24.864
0.0951642
0.0296477
24.8063
0.119982
0.0413247
24.7385
0.139208
0.057459
6.14337
0.0377719
0.0796744
0.053274
0.0378333
0.0534007
6.16304
6.14399
6.16288
-0.0115702
6.12596
0.0172565
0.0175625
-0.0154027
-6.11386
6.10177
-0.0324339
0.0233465
-0.0192738
-6.10562
6.09819
0.020937
0.0292695
-0.0229208
-6.11365
6.14591
-0.256547
0.0349026
-0.0253685
-6.16435
6.17861
-0.153784
0.0387818
-0.026865
-6.1921
6.20307
-0.140283
0.0411827
-0.0280131
-6.21415
6.22851
-0.141253
0.0430377
-0.0290044
-6.24131
6.24856
-0.137093
0.0445997
-0.029845
-6.2544
6.25968
-0.132533
0.045848
-0.0305122
-6.26343
6.26744
-0.128778
0.0468593
25.1094
-0.142024
0.268736
-0.142607
-0.142557
-0.140742
-6.27122
-6.27541
-6.27071
-6.27499
25.1154
-0.545406
0.271096
25.1172
-0.531258
0.272662
25.1181
-0.527521
0.275617
25.1172
-0.523615
0.278065
25.1144
-0.520033
0.280298
25.1114
-0.517685
0.28139
25.1076
-0.515559
0.282078
25.1034
-0.513678
0.282137
25.0986
-0.512427
0.281633
25.0941
-0.510721
0.280663
25.0893
-0.509487
0.279358
25.0843
-0.507872
0.277577
25.0794
-0.506703
0.276245
25.0744
-0.505533
0.274598
25.0694
-0.50479
0.273131
25.0639
-0.50381
0.271648
25.0586
-0.503755
0.270196
25.0542
-0.504781
0.268664
-0.505222
0.266448
24.9985
0.00415036
0.00184989
24.9934
0.0187417
0.00386781
24.9839
0.0342394
0.00626488
24.9693
0.0508529
0.00931951
24.9473
0.0710424
0.0133815
24.9153
0.0968569
0.0186889
24.8668
0.130582
0.0267087
24.7943
0.173941
0.0376232
6.17378
0.22478
0.0532681
6.16658
6.17459
6.16698
-0.00788484
6.15852
0.0488955
0.0120165
-0.0112356
6.13251
0.0171636
-6.16125
0.0199779
0.011372
0.0200842
0.0111912
-0.0398433
-0.0154179
-6.07954
6.04591
0.0237298
-0.00186218
0.00349879
-0.00211888
0.00367052
0.0222415
-0.0199529
-6.04415
6.05782
0.0309246
0.0522273
-0.0403827
0.0516809
-0.0399445
-0.0480697
-0.0240437
-6.09848
6.13993
0.0374838
-0.0514218
-0.129271
-0.0519696
-0.128782
0.306675
-0.0254137
-6.17125
6.18318
0.0402638
-0.0504846
-0.0538236
-0.0508018
-0.0534446
0.181843
-0.0258357
-6.19702
6.21134
0.0413791
-0.0508824
-0.0502856
-0.0509862
-0.0501734
0.172404
-0.026332
-6.22515
6.23707
0.0423647
-0.0488138
-0.0488009
-0.048847
-0.0487839
0.16719
-0.0269944
-6.24675
6.25407
0.0433359
-0.0458432
-0.0459129
-0.0461179
-0.0458912
0.160059
-0.0277271
-6.26068
6.26513
0.0442569
-0.0434937
-0.0436597
-0.0435688
-0.0435979
0.153352
-0.0284486
-6.26928
6.27135
0.0451427
-0.0414966
-0.0416972
-0.0413642
-0.0415995
0.147429
-6.27363
-0.0288862
6.2753
-0.160809
0.0460245
25.0582
-0.657516
0.266504
-6.2761
-6.27031
-6.27676
-6.27129
25.0293
-0.647462
0.265796
24.9987
-0.640516
0.265494
24.9679
-0.635417
0.264711
24.9387
-0.632911
0.263592
24.9108
-0.631557
0.262068
24.8849
-0.630417
0.259294
24.8609
-0.629248
0.256035
24.8383
-0.627697
0.252139
24.8175
-0.625724
0.247774
24.7983
-0.623337
0.242932
24.7802
-0.620521
0.238593
24.763
-0.617307
0.234149
24.7466
-0.614294
0.230061
24.7305
-0.611304
0.226386
24.7152
-0.608789
0.223022
24.7007
-0.607077
0.219789
24.6873
-0.606828
0.21645
-0.608904
0.212378
25.002
0.000605237
0.00159707
24.9997
0.0194154
0.00326602
24.992
0.0393359
0.00526305
24.98
0.0590642
0.00778498
24.9625
0.0830717
0.0111026
24.9366
0.1156
0.0151027
24.8945
0.161923
0.0218532
24.8235
0.229762
0.0306154
6.17288
0.336202
0.0434398
6.17189
6.1733
6.17203
-0.00628576
-0.0637872
6.14742
0.0857866
0.00979194
-0.0020616
-0.0191699
-1.52809
1.52285
0.0237489
0.00273469
-0.00300591
-0.0185968
-1.50438
1.49177
0.030381
0.00385555
-0.00420748
-1.46904
0.0524584
1.47899
-0.0635782
0.00539435
-0.00525785
-1.52853
0.153916
1.54003
-0.167013
0.00685934
-0.00471569
-1.53696
0.0607131
-0.0647117
1.53916
0.00651871
-1.54915
-0.00431311
0.0593929
-0.0638311
0.00582449
1.55209
-0.00429696
0.0560955
-1.5581
1.55962
-0.0588682
0.00554452
-0.00444687
0.0516099
-1.56276
1.56337
-0.0534567
0.00568906
-0.00453075
0.0485673
-1.56412
1.5642
-0.0501081
0.00599652
-0.00449401
0.0458918
-1.56344
1.56295
-0.0471942
0.00629432
-1.55666
-0.0166591
0.172162
6.16804
-0.158236
0.0317998
-1.54059
-1.55734
-1.54251
23.8001
-0.75868
0.131477
-6.1032
-5.79279
-6.09735
-5.77516
23.8178
-0.734236
0.134635
23.8338
-0.724946
0.134775
23.8491
-0.718329
0.132799
23.8632
-0.713848
0.129703
23.8762
-0.710398
0.126056
23.8889
-0.707246
0.121426
23.9013
-0.703926
0.116806
23.9136
-0.700219
0.112225
23.9257
-0.695985
0.107881
23.9378
-0.691255
0.10369
23.9494
-0.686269
0.10044
23.9608
-0.681153
0.0974077
23.9719
-0.676176
0.0947857
23.9827
-0.671566
0.0923894
23.9934
-0.667512
0.0899764
24.004
-0.664151
0.0871761
24.0143
-0.661563
0.0834171
-0.65974
0.0776372
25.0089
-0.00060691
0.00125034
25.0094
0.0175624
0.00256558
25.0059
0.0408725
0.00409004
24.999
0.0630803
0.00594604
24.9889
0.0891346
0.00828581
24.9752
0.124284
0.0108157
24.9556
0.173985
0.0152742
24.925
0.250089
0.0204166
6.2136
0.376032
0.0274116
6.22167
6.21371
6.22192
-0.00376731
-0.103767
6.19812
0.117118
0.00591301
-0.00115884
-0.038975
-1.54196
1.53582
0.0447334
0.00154242
-0.00148587
-0.0820078
-1.50582
1.48738
0.100018
0.0019243
-0.0001789
0.00450789
-0.0747905
0.0750443
-0.00476914
0.000186107
0.00664681
-0.209368
0.0124733
-0.0235176
-0.00370452
0.21747
-1.1338
0.00924514
0.0526462
-0.072553
-0.00205792
1.14651
0.00694069
0.0399266
-1.18124
1.19097
-0.0512542
-0.00535024
0.0046986
0.0402661
-1.22793
1.24194
-0.0527128
-0.0062589
0.00272684
0.0412116
-1.28168
1.29454
-0.0507933
-0.00599981
0.00165914
0.0439114
-1.32881
1.34043
-0.051526
-0.00566664
-1.38951
0.0152597
0.185398
5.79068
-0.21607
-0.031331
-1.49111
-1.37429
-1.48903
24.0874
-0.688239
-0.192393
-5.85568
-6.16653
-5.86544
-6.1678
24.1148
-0.659814
-0.194305
24.1414
-0.649599
-0.19538
24.1681
-0.642166
-0.196134
24.1938
-0.635942
-0.196049
24.2184
-0.630969
-0.194855
24.2418
-0.626985
-0.192516
24.2638
-0.623468
-0.189114
24.2843
-0.620204
-0.184828
24.303
-0.617018
-0.179884
24.3203
-0.614048
-0.174578
24.3364
-0.611435
-0.169165
24.3517
-0.609126
-0.163998
24.3663
-0.606865
-0.159272
24.3805
-0.604855
-0.155245
24.3944
-0.603095
-0.152148
24.4083
-0.601522
-0.150296
24.4221
-0.599603
-0.149996
-0.596142
-0.151531
25.008
-0.00543079
0.000889428
25.0148
0.00987458
0.0018387
25.0212
0.0331324
0.0028601
25.0248
0.0576326
0.00399691
25.0237
0.087649
0.00526667
25.0277
0.117335
0.00639787
25.0392
0.158523
0.00802874
25.067
0.217712
0.00908043
6.27539
0.307539
0.00927498
6.28746
6.2768
6.29067
-0.000975745
-0.108667
6.28284
0.100648
0.00152152
-0.000131925
-0.0440958
-1.5777
1.57943
0.0423211
0.000166996
0.000361176
-0.0817031
-1.60004
1.61658
0.0652176
-0.000426204
0.0014506
-0.0262781
-1.71218
1.74996
0.0590342
-0.00106959
-0.0216746
-0.0272455
-0.0220022
0.00263195
0.110216
-1.71071
1.68002
-0.0786534
-0.00351398
0.1063
-1.6097
0.00364404
1.5985
-0.093613
-0.00514744
0.00453827
0.0746785
-1.58314
-0.00604005
1.58086
-0.0709238
0.0050118
0.0539607
-1.5774
1.57588
-0.0509119
-0.0065462
0.00524358
0.0557348
-1.575
1.57357
-0.0527212
-0.0068196
0.00539605
0.0501409
-1.57272
1.57207
-0.0478881
-0.00699984
0.00549727
0.0466947
-1.56928
1.56959
-0.0453871
-0.0071156
-1.56968
0.0234999
0.179069
6.27328
-0.157796
-0.038301
-1.56984
-1.56975
-1.5705
25.0819
-0.535926
-0.243759
-6.27586
-6.26941
-6.28039
-6.27448
25.0822
-0.526958
-0.245042
25.08
-0.514639
-0.24611
25.0778
-0.506602
-0.247904
25.0758
-0.499583
-0.249776
25.0746
-0.494314
-0.251321
25.0734
-0.489621
-0.252381
25.0723
-0.485598
-0.25287
25.0711
-0.482116
-0.252758
25.0697
-0.478867
-0.252083
25.068
-0.476276
-0.250952
25.0667
-0.474405
-0.249734
25.065
-0.472885
-0.247904
25.0631
-0.47116
-0.246352
25.0616
-0.470509
-0.24504
25.0604
-0.469576
-0.244248
25.0597
-0.468599
-0.244217
25.0596
-0.466906
-0.245151
-0.464873
-0.246956
25.0065
-0.00963036
0.00058072
25.0163
-0.000428568
0.00117558
25.03
0.0186606
0.00170739
25.0379
0.0487417
0.00216384
25.055
0.0694695
0.00242785
25.078
0.0934149
0.00229842
25.1152
0.120651
0.00140825
25.1799
0.153461
-0.000928671
6.32884
0.194713
-0.00596859
6.31768
6.333
6.3161
-0.0854509
0.00130279
6.34703
0.0680013
-0.00203932
-0.0328658
0.00331357
6.42038
0.0876808
-0.00483345
-0.0309943
-0.0330619
-0.0301315
-6.37943
-0.0297089
0.00704293
6.49184
0.082662
-0.0102597
-0.0290944
-0.0288433
-0.0314536
-6.45224
-0.00980755
0.0121375
-6.54028
6.49936
-0.0564004
-0.0186065
0.0626151
-0.0111198
0.0619817
0.0347176
0.0183936
-6.49222
6.47373
-0.142571
-0.0280684
0.0512627
0.0340294
0.0505811
0.0578582
-6.45014
0.0233165
6.40651
-0.181189
-0.0354798
0.0571493
0.0612922
0.0605669
0.055459
0.0261214
-6.36664
6.3392
-0.174944
-0.0398213
0.053431
0.0545896
0.0526013
0.0451073
0.027795
-6.32586
6.31921
-0.156594
-0.042405
0.0444822
0.0444116
0.0439232
0.0439795
0.0288176
-6.31514
6.30727
-0.152886
-0.0439307
0.0445652
0.0433841
0.0439934
0.0434171
0.0293496
-6.29841
6.28925
-0.143335
-0.0447571
0.0410067
0.0429334
0.0405465
0.038636
0.0296419
-6.28156
6.27354
-0.127067
-0.045177
0.0357223
0.0392239
0.0370221
0.1386
-6.27185
0.0298953
6.272
-0.123261
-0.0453947
25.0706
-0.392546
-0.256878
-6.27031
-6.26871
-6.27077
-6.26851
25.0632
-0.384632
-0.256708
25.0592
-0.376469
-0.256687
25.0564
-0.369803
-0.257107
25.0554
-0.364594
-0.257309
25.0547
-0.359965
-0.257124
25.0549
-0.356442
-0.256549
25.0557
-0.353431
-0.255618
25.0564
-0.350379
-0.254395
25.0575
-0.348241
-0.25297
25.0583