/*--------------------------------*- C++ -*----------------------------------*\
| =========                 |                                                 |
| \\      /  F ield         | OpenFOAM: The Open Source CFD Toolbox           |
|  \\    /   O peration     | Version:  2306                                  |
|   \\  /    A nd           | Website:  www.openfoam.com                      |
|    \\/     M anipulation  |                                                 |
\*---------------------------------------------------------------------------*/
FoamFile
{
    version     2.0;
    format      ascii;
    arch        "LSB;label=32;scalar=64";
    class       volVectorField;
    location    "0.45";
    object      U;
}
// * * * * * * * * * * * * * * * * * * * * * * * * * * * * * * * * * * * * * //

dimensions      [0 1 -1 0 0 0 0];

internalField   nonuniform List<vector> 
111542
(
(99.9934 0.00550758 0.00250791)
(99.9715 0.0113006 0.00524363)
(99.9306 0.0173153 0.00832313)
(99.8695 0.0236655 0.0122089)
(99.7866 0.0300634 0.0172932)
(99.6798 0.0357067 0.0240396)
(99.5483 0.0387145 0.0327366)
(99.3943 0.0361106 0.0439069)
(99.2269 0.0232706 0.0580797)
(99.0662 -0.00618971 0.0752796)
(98.945 -0.0579941 0.0949787)
(98.9041 -0.129815 0.116104)
(98.9702 -0.203513 0.137417)
(99.1351 -0.259405 0.156901)
(99.3546 -0.286756 0.17328)
(99.5799 -0.295147 0.186679)
(99.783 -0.293617 0.197539)
(99.9547 -0.286986 0.206594)
(100.094 -0.278354 0.214182)
(100.205 -0.269812 0.220575)
(100.29 -0.262611 0.225671)
(100.353 -0.256878 0.229735)
(100.4 -0.252276 0.233177)
(100.434 -0.249092 0.235902)
(100.46 -0.247066 0.238018)
(100.48 -0.245682 0.23977)
(100.496 -0.245003 0.240974)
(100.508 -0.244866 0.241698)
(100.517 -0.244944 0.242148)
(100.525 -0.24511 0.242371)
(100.532 -0.245338 0.242378)
(100.538 -0.245688 0.24215)
(100.544 -0.246033 0.241886)
(100.549 -0.246388 0.241646)
(100.555 -0.246819 0.241433)
(100.561 -0.247405 0.24123)
(100.568 -0.248256 0.240958)
(100.577 -0.249271 0.240741)
(100.587 -0.250493 0.240588)
(100.603 -0.252136 0.240553)
(99.9937 0.0164103 0.00246088)
(99.9721 0.033599 0.00508841)
(99.9318 0.0518302 0.00816582)
(99.871 0.0713664 0.0120463)
(99.7875 0.091523 0.0171118)
(99.6775 0.110143 0.0238158)
(99.538 0.122251 0.0326357)
(99.3684 0.119011 0.0441316)
(99.1746 0.0858357 0.058836)
(98.9753 0.00177223 0.0769721)
(98.8117 -0.150481 0.0982492)
(98.7501 -0.364696 0.120877)
(98.8353 -0.588339 0.143876)
(99.0466 -0.74917 0.164826)
(99.3117 -0.828324 0.181964)
(99.5658 -0.85573 0.195434)
(99.7838 -0.853929 0.206264)
(99.9625 -0.836622 0.215271)
(100.104 -0.813385 0.222777)
(100.213 -0.789673 0.228898)
(100.295 -0.768558 0.233729)
(100.355 -0.752215 0.237696)
(100.398 -0.740469 0.241102)
(100.429 -0.732511 0.244013)
(100.452 -0.726092 0.246463)
(100.47 -0.719904 0.248502)
(100.484 -0.714299 0.250106)
(100.494 -0.709435 0.251288)
(100.503 -0.705071 0.252096)
(100.51 -0.701128 0.252565)
(100.516 -0.697673 0.252735)
(100.522 -0.694848 0.252661)
(100.527 -0.692575 0.252441)
(100.532 -0.690939 0.252143)
(100.538 -0.690089 0.251805)
(100.544 -0.690187 0.251445)
(100.551 -0.691395 0.251059)
(100.559 -0.693601 0.250669)
(100.568 -0.696798 0.250292)
(100.582 -0.701007 0.250048)
(99.994 0.0269042 0.00234514)
(99.9735 0.055149 0.00485728)
(99.9347 0.0858275 0.00783786)
(99.8754 0.119614 0.0116142)
(99.7917 0.15609 0.0165736)
(99.6772 0.192801 0.0232065)
(99.5244 0.223341 0.0320994)
(99.3258 0.234027 0.043948)
(99.0785 0.198263 0.0595228)
(98.7995 0.0677791 0.0794909)
(98.548 -0.266095 0.104146)
(98.4364 -0.72809 0.131861)
(98.5611 -1.14535 0.157187)
(98.8687 -1.38188 0.179628)
(99.2168 -1.47512 0.19669)
(99.5201 -1.49934 0.209201)
(99.7657 -1.48042 0.219091)
(99.9579 -1.44159 0.227404)
(100.104 -1.39776 0.234345)
(100.211 -1.35527 0.239846)
(100.288 -1.31825 0.24373)
(100.341 -1.28598 0.247117)
(100.378 -1.26855 0.250594)
(100.405 -1.2633 0.254083)
(100.427 -1.26173 0.257325)
(100.443 -1.2599 0.26013)
(100.455 -1.25739 0.262378)
(100.463 -1.25431 0.264004)
(100.469 -1.25061 0.265005)
(100.473 -1.24639 0.265433)
(100.477 -1.24193 0.265375)
(100.48 -1.23755 0.264943)
(100.482 -1.23354 0.264254)
(100.484 -1.23022 0.263415)
(100.486 -1.22789 0.262499)
(100.489 -1.22683 0.261549)
(100.491 -1.22727 0.260571)
(100.495 -1.22927 0.259566)
(100.5 -1.23272 0.258571)
(100.508 -1.23712 0.25779)
(99.9946 0.0365028 0.00216524)
(99.9762 0.075149 0.00450129)
(99.9409 0.11806 0.00728869)
(99.8857 0.167031 0.0108398)
(99.8051 0.223044 0.0155386)
(99.6895 0.285404 0.0218932)
(99.5247 0.349748 0.0305665)
(99.2898 0.403441 0.0424015)
(98.956 0.416804 0.0584919)
(98.459 0.215948 0.0803052)
(98.2028 0.0365372 0.0871308)
(97.8571 -0.619374 0.102854)
(97.9244 -1.41991 0.116172)
(98.4067 -1.92912 0.126371)
(98.9122 -2.06986 0.13487)
(99.308 -2.09166 0.139478)
(99.6261 -2.04821 0.142722)
(99.8653 -1.97408 0.145718)
(100.039 -1.89665 0.148643)
(100.165 -1.82941 0.151322)
(100.323 -1.88999 0.245896)
(100.356 -1.82524 0.249405)
(100.363 -1.78113 0.253846)
(100.366 -1.75707 0.259011)
(100.372 -1.74255 0.264138)
(100.375 -1.73322 0.268653)
(100.373 -1.72706 0.272265)
(100.367 -1.72242 0.274881)
(100.358 -1.7182 0.276523)
(100.347 -1.71396 0.277268)
(100.335 -1.70967 0.277228)
(100.321 -1.70549 0.276538)
(100.307 -1.70176 0.27534)
(100.291 -1.69886 0.273765)
(100.274 -1.69721 0.271915)
(100.256 -1.69725 0.269855)
(100.238 -1.69937 0.2676)
(100.219 -1.70383 0.265151)
(100.201 -1.71058 0.262546)
(100.179 -1.71827 0.260073)
(99.9956 0.0444786 0.0019179)
(99.9806 0.0920117 0.0040038)
(99.9516 0.145985 0.00649349)
(99.9051 0.209891 0.00966244)
(99.8347 0.287266 0.0138611)
(99.7289 0.381592 0.0195619)
(99.5682 0.49548 0.0274156)
(99.3201 0.627474 0.0382809)
(98.8795 0.764131 0.0533204)
(98.5366 0.770748 0.0587302)
(97.7258 0.380303 0.072428)
(96.9244 -0.686117 0.089565)
(97.0251 -2.3362 0.102037)
(98.1625 -2.92537 0.107977)
(98.8942 -2.92538 0.111462)
(99.3607 -2.85888 0.109422)
(99.7186 -2.72619 0.108863)
(99.957 -2.58459 0.111797)
(100.113 -2.45907 0.11728)
(100.208 -2.36192 0.123946)
(100.267 -2.32053 0.133864)
(100.206 -2.45278 0.233787)
(100.078 -2.45712 0.236677)
(99.9554 -2.44362 0.239207)
(99.8457 -2.42165 0.241345)
(99.742 -2.39931 0.243018)
(99.6428 -2.37779 0.244301)
(99.5492 -2.35635 0.245362)
(99.4618 -2.33476 0.246298)
(99.3804 -2.31333 0.247067)
(99.3046 -2.2925 0.247524)
(99.2337 -2.27276 0.24748)
(99.167 -2.25463 0.246752)
(99.1033 -2.23862 0.245194)
(99.0417 -2.22522 0.242719)
(98.9814 -2.2149 0.239287)
(98.9219 -2.2081 0.23488)
(98.8635 -2.20537 0.229523)
(98.8081 -2.20768 0.223293)
(98.7496 -2.21712 0.216488)
(99.9971 0.0499109 0.00161842)
(99.9871 0.103708 0.0033786)
(99.9675 0.166023 0.00546384)
(99.9353 0.242165 0.00808169)
(99.8851 0.33871 0.0114978)
(99.8063 0.464714 0.0160701)
(99.6799 0.633591 0.0222889)
(99.4692 0.86543 0.0307856)
(99.0505 1.1915 0.0423391)
(98.6423 1.35246 0.0469391)
(97.6894 1.49233 0.0453209)
(95.5834 0.720326 0.0416085)
(94.3954 -3.4255 0.0535989)
(98.2427 -4.68958 0.0368386)
(98.8081 -3.75862 0.0290738)
(99.3545 -3.60505 0.0448694)
(99.7304 -3.36127 0.0674282)
(99.8891 -3.13984 0.0805208)
(99.9219 -2.97233 0.079083)
(99.8564 -2.82543 0.0644795)
(98.8083 -2.60554 0.148709)
(95.364 -2.21191 0.143515)
(95.3941 -2.31748 0.144066)
(95.4329 -2.38176 0.138907)
(95.4561 -2.42125 0.131138)
(95.472 -2.44777 0.12292)
(95.4906 -2.46486 0.115438)
(95.5157 -2.47393 0.109115)
(95.5475 -2.47652 0.103859)
(95.5855 -2.4742 0.0993332)
(95.6289 -2.46836 0.0951663)
(95.6764 -2.46024 0.0910711)
(95.7268 -2.451 0.0868601)
(95.7785 -2.44174 0.0824313)
(95.8305 -2.43347 0.0777191)
(95.8817 -2.42711 0.0726477)
(95.9315 -2.42343 0.0670941)
(95.9797 -2.42324 0.0608802)
(96.0254 -2.42777 0.0538252)
(96.0753 -2.43997 0.0461014)
(99.9989 0.0519229 0.00127882)
(99.9952 0.108226 0.002657)
(99.9877 0.174376 0.0042541)
(99.975 0.256939 0.00618386)
(99.9545 0.364666 0.00858189)
(99.9213 0.510882 0.0116129)
(99.867 0.717378 0.0154465)
(99.7773 1.02248 0.0201785)
(99.6037 1.49936 0.0256815)
(99.3358 1.89825 0.0280158)
(98.6161 2.83177 0.0253676)
(95.4773 5.82651 0.0194189)
(77.111 -4.27072 0.0347671)
(102.798 -10.2923 0.0207001)
(55.5634 -4.77668 -0.584193)
(72.8417 -3.63892 -0.0350388)
(77.351 -3.07934 0.01275)
(80.903 -2.965 0.0461588)
(83.7563 -2.96666 0.0486151)
(86.0155 -3.01259 0.0714652)
(92.2866 -3.48072 -0.151959)
(95.9737 -3.18594 -0.179093)
(96.1386 -3.08135 -0.178612)
(96.3129 -3.00782 -0.176891)
(96.4564 -2.95235 -0.175988)
(96.5753 -2.90612 -0.176797)
(96.6791 -2.8657 -0.179466)
(96.7713 -2.8295 -0.183743)
(96.8532 -2.7965 -0.189096)
(96.9263 -2.76601 -0.19482)
(96.9925 -2.73764 -0.200173)
(97.054 -2.71121 -0.204499)
(97.1129 -2.68673 -0.207319)
(97.1708 -2.66431 -0.20838)
(97.2291 -2.64408 -0.207682)
(97.2888 -2.6262 -0.205465)
(97.3502 -2.61069 -0.202203)
(97.4136 -2.59737 -0.198522)
(97.4782 -2.58556 -0.195111)
(97.5577 -2.57317 -0.192452)
(100.001 0.0499567 0.000997327)
(100.004 0.104251 0.00197864)
(100.01 0.168485 0.00304727)
(100.019 0.249365 0.00422608)
(100.032 0.355876 0.00550874)
(100.052 0.501455 0.00684014)
(100.086 0.707344 0.00804384)
(100.147 1.00916 0.00866722)
(100.289 1.46885 0.00773432)
(100.337 1.87829 0.0073695)
(100.609 2.8599 0.00319239)
(102.42 5.37732 -0.0048525)
(111.069 3.90019 -0.0289061)
(108.991 -6.56206 0.0399875)
(102.77 -6.58227 -0.00770799)
(101.129 -4.77612 -0.033438)
(100.699 -3.78841 -0.0432083)
(100.536 -3.25857 -0.0439744)
(100.457 -2.96346 -0.0410896)
(100.392 -2.80637 -0.0382798)
(100.287 -2.6357 -0.111997)
(100.292 -2.26148 -0.218192)
(100.27 -2.16964 -0.222532)
(100.254 -2.11785 -0.22603)
(100.244 -2.08859 -0.229322)
(100.234 -2.06816 -0.232464)
(100.227 -2.05171 -0.235357)
(100.223 -2.03795 -0.238025)
(100.221 -2.02624 -0.240533)
(100.22 -2.01621 -0.24288)
(100.219 -2.00773 -0.244993)
(100.219 -2.00085 -0.246755)
(100.218 -1.99562 -0.248052)
(100.217 -1.99203 -0.248809)
(100.215 -1.98997 -0.249027)
(100.214 -1.98917 -0.248805)
(100.212 -1.98921 -0.248348)
(100.212 -1.98938 -0.247937)
(100.213 -1.9884 -0.247859)
(100.22 -1.98365 -0.248159)
(100.003 0.0438506 0.000610643)
(100.012 0.0915578 0.00120315)
(100.03 0.148004 0.00181529)
(100.06 0.218967 0.0023164)
(100.104 0.311812 0.00257947)
(100.17 0.436557 0.00238492)
(100.273 0.607247 0.00131347)
(100.439 0.843259 -0.00139628)
(100.755 1.16891 -0.00716372)
(100.978 1.40795 -0.00934245)
(101.827 1.86375 -0.0170742)
(103.434 1.77045 -0.0312682)
(105.21 -0.218022 -0.0471566)
(104.764 -2.77531 -0.0251397)
(102.984 -3.48436 -0.0412446)
(101.78 -3.26512 -0.0547803)
(101.159 -2.91655 -0.0628857)
(100.824 -2.62617 -0.0685469)
(100.627 -2.41316 -0.0732057)
(100.494 -2.25889 -0.0774026)
(100.396 -2.13846 -0.081952)
(100.287 -1.87666 -0.23511)
(100.25 -1.84515 -0.237389)
(100.226 -1.82135 -0.239878)
(100.212 -1.80395 -0.242395)
(100.204 -1.78933 -0.244614)
(100.201 -1.77559 -0.246289)
(100.2 -1.76243 -0.247337)
(100.201 -1.7499 -0.247782)
(100.204 -1.73803 -0.247699)
(100.207 -1.72686 -0.247177)
(100.21 -1.71649 -0.246317)
(100.213 -1.707 -0.245217)
(100.215 -1.69843 -0.24398)
(100.217 -1.69073 -0.242717)
(100.218 -1.68376 -0.241554)
(100.22 -1.67728 -0.240636)
(100.222 -1.67092 -0.240125)
(100.227 -1.66429 -0.24019)
(100.24 -1.65734 -0.241019)
(100.004 0.0340946 0.000372131)
(100.019 0.0711841 0.000751833)
(100.047 0.114912 0.000939272)
(100.093 0.169467 0.000846857)
(100.16 0.239767 0.000277808)
(100.258 0.331515 -0.0011117)
(100.404 0.450873 -0.00387197)
(100.621 0.602221 -0.00888657)
(100.955 0.781771 -0.0176041)
(101.44 0.86613 -0.0319129)
(102.079 0.770221 -0.0536094)
(102.755 0.246584 -0.0830764)
(103.117 -0.733857 -0.115298)
(102.877 -1.55763 -0.143562)
(102.243 -1.86252 -0.171265)
(101.618 -1.87034 -0.192983)
(101.173 -1.78894 -0.207725)
(100.881 -1.68987 -0.217786)
(100.684 -1.59698 -0.225008)
(100.544 -1.51552 -0.230236)
(100.446 -1.44465 -0.233934)
(100.379 -1.38045 -0.23638)
(100.333 -1.32877 -0.238477)
(100.301 -1.28618 -0.240467)
(100.279 -1.25163 -0.242242)
(100.263 -1.22358 -0.243708)
(100.253 -1.20025 -0.244835)
(100.246 -1.18056 -0.245623)
(100.242 -1.16385 -0.246094)
(100.239 -1.14971 -0.246287)
(100.237 -1.13781 -0.246259)
(100.236 -1.12794 -0.246074)
(100.235 -1.11989 -0.245799)
(100.234 -1.11345 -0.245503)
(100.233 -1.10836 -0.245268)
(100.232 -1.10434 -0.245178)
(100.232 -1.10107 -0.245332)
(100.233 -1.09819 -0.245834)
(100.236 -1.09546 -0.246799)
(100.242 -1.09288 -0.248349)
(100.005 0.0216162 0.000182574)
(100.024 0.04502 0.000306496)
(100.059 0.0726016 0.000225386)
(100.115 0.106597 -0.000230539)
(100.196 0.149812 -0.0013549)
(100.312 0.204572 -0.00351669)
(100.476 0.272268 -0.00730462)
(100.703 0.350374 -0.0135449)
(101.012 0.426053 -0.0233812)
(101.412 0.460429 -0.0381075)
(101.877 0.397924 -0.0587807)
(102.31 0.164149 -0.085521)
(102.536 -0.251328 -0.11551)
(102.427 -0.676648 -0.144112)
(102.045 -0.919909 -0.169635)
(101.591 -0.981372 -0.189853)
(101.212 -0.956179 -0.204817)
(100.936 -0.906368 -0.215615)
(100.737 -0.855079 -0.223591)
(100.589 -0.808632 -0.229514)
(100.478 -0.769135 -0.233829)
(100.397 -0.738879 -0.236901)
(100.337 -0.717745 -0.23918)
(100.294 -0.703309 -0.240862)
(100.263 -0.693557 -0.242012)
(100.241 -0.68714 -0.242673)
(100.227 -0.682895 -0.242904)
(100.217 -0.679993 -0.242761)
(100.211 -0.677975 -0.242305)
(100.207 -0.676608 -0.241608)
(100.205 -0.675738 -0.240749)
(100.204 -0.675281 -0.239811)
(100.204 -0.675177 -0.238871)
(100.204 -0.67541 -0.238003)
(100.204 -0.675653 -0.23731)
(100.205 -0.675963 -0.236838)
(100.206 -0.676257 -0.236649)
(100.209 -0.676403 -0.236823)
(100.215 -0.676298 -0.237478)
(100.229 -0.675779 -0.238844)
(100.006 0.00740691 7.62552e-05)
(100.026 0.015384 0.000136193)
(100.065 0.0248101 -0.000118855)
(100.125 0.0362901 -0.000711498)
(100.213 0.0508288 -0.0021245)
(100.337 0.0689539 -0.00466799)
(100.506 0.0906441 -0.0089682)
(100.733 0.114417 -0.0157345)
(101.024 0.135211 -0.0260815)
(101.374 0.140541 -0.0407384)
(101.748 0.110675 -0.0602923)
(102.073 0.0251528 -0.0844579)
(102.243 -0.11303 -0.111428)
(102.183 -0.256677 -0.138249)
(101.915 -0.348754 -0.161828)
(101.557 -0.378472 -0.181191)
(101.221 -0.374319 -0.196262)
(100.956 -0.360414 -0.207459)
(100.755 -0.345712 -0.21589)
(100.603 -0.332326 -0.22226)
(100.488 -0.320794 -0.227033)
(100.402 -0.311413 -0.230517)
(100.339 -0.303607 -0.232985)
(100.294 -0.296671 -0.234581)
(100.262 -0.289986 -0.235564)
(100.24 -0.283345 -0.236038)
(100.225 -0.276671 -0.236076)
(100.215 -0.269965 -0.235762)
(100.208 -0.263306 -0.235183)
(100.204 -0.256817 -0.234425)
(100.201 -0.250611 -0.233574)
(100.2 -0.244786 -0.232708)
(100.199 -0.239421 -0.231888)
(100.198 -0.234599 -0.231132)
(100.198 -0.230122 -0.230708)
(100.198 -0.226093 -0.230539)
(100.199 -0.222511 -0.230649)
(100.202 -0.219345 -0.231108)
(100.206 -0.216666 -0.232028)
(100.215 -0.214927 -0.233655)
(99.9937 0.00546114 0.00743611)
(99.9721 0.011147 0.0154326)
(99.932 0.0171618 0.024665)
(99.8721 0.0235103 0.0362566)
(99.7911 0.0298933 0.0513035)
(99.6867 0.0355011 0.0710736)
(99.5582 0.0386358 0.0966915)
(99.408 0.0363556 0.129618)
(99.2451 0.024037 0.171164)
(99.0884 -0.00453471 0.221555)
(98.9702 -0.0549015 0.27968)
(98.9302 -0.125249 0.342485)
(98.994 -0.196979 0.405362)
(99.1529 -0.251083 0.46288)
(99.3645 -0.277554 0.511337)
(99.5818 -0.285711 0.5507)
(99.7779 -0.284068 0.582353)
(99.9443 -0.277363 0.608189)
(100.081 -0.268724 0.629324)
(100.189 -0.260431 0.64654)
(100.274 -0.253411 0.660113)
(100.338 -0.247726 0.670821)
(100.388 -0.243137 0.679516)
(100.426 -0.239758 0.686219)
(100.455 -0.237389 0.691071)
(100.479 -0.235721 0.694404)
(100.497 -0.234642 0.696124)
(100.512 -0.234045 0.696507)
(100.523 -0.233767 0.69601)
(100.532 -0.233685 0.694882)
(100.539 -0.23374 0.693306)
(100.545 -0.233916 0.691439)
(100.549 -0.234195 0.689672)
(100.553 -0.234585 0.688186)
(100.557 -0.23511 0.687041)
(100.561 -0.235817 0.686225)
(100.566 -0.236741 0.685623)
(100.572 -0.237886 0.685302)
(100.581 -0.239293 0.685142)
(100.596 -0.241102 0.684991)
(99.9938 0.0162495 0.00727786)
(99.9727 0.0332182 0.015056)
(99.9332 0.0513567 0.0242014)
(99.8738 0.0707929 0.0357111)
(99.7922 0.0908389 0.0506858)
(99.6848 0.109373 0.0704399)
(99.5488 0.121707 0.0964259)
(99.3837 0.119165 0.130306)
(99.1951 0.0873734 0.173648)
(99.001 0.00596042 0.227285)
(98.8414 -0.141845 0.290492)
(98.7819 -0.349546 0.359926)
(98.8655 -0.568186 0.429525)
(99.0705 -0.726946 0.492172)
(99.3271 -0.805135 0.543031)
(99.5729 -0.833037 0.582862)
(99.7843 -0.831798 0.614424)
(99.958 -0.814872 0.640015)
(100.096 -0.792032 0.660755)
(100.203 -0.769032 0.677207)
(100.285 -0.748942 0.689916)
(100.346 -0.733172 0.700164)
(100.391 -0.72134 0.708584)
(100.425 -0.712596 0.715112)
(100.451 -0.70505 0.719749)
(100.471 -0.697819 0.722741)
(100.486 -0.691198 0.724323)
(100.498 -0.685487 0.72477)
(100.507 -0.68064 0.724363)
(100.515 -0.676574 0.723338)
(100.521 -0.673268 0.721912)
(100.525 -0.67073 0.720307)
(100.53 -0.668932 0.718775)
(100.534 -0.667914 0.717493)
(100.538 -0.667749 0.716543)
(100.542 -0.668516 0.715936)
(100.547 -0.670311 0.715609)
(100.554 -0.673145 0.715485)
(100.562 -0.676981 0.715428)
(100.576 -0.681724 0.715348)
(99.9941 0.0266111 0.00693503)
(99.9741 0.0545708 0.01438)
(99.9362 0.0849695 0.0232142)
(99.8784 0.118444 0.0344)
(99.7967 0.154578 0.0490737)
(99.6853 0.190995 0.0686725)
(99.5366 0.221463 0.0949563)
(99.3434 0.232582 0.130044)
(99.1029 0.198269 0.176275)
(98.8313 0.071183 0.235688)
(98.5865 -0.255033 0.308747)
(98.4781 -0.707284 0.390718)
(98.5996 -1.11609 0.471372)
(98.8994 -1.34981 0.541374)
(99.2373 -1.44399 0.594159)
(99.5317 -1.47012 0.632855)
(99.7709 -1.4524 0.662755)
(99.9587 -1.4142 0.686895)
(100.102 -1.37077 0.706202)
(100.207 -1.32873 0.720938)
(100.284 -1.29309 0.7311)
(100.338 -1.26224 0.73973)
(100.377 -1.24432 0.747837)
(100.406 -1.23694 0.754545)
(100.429 -1.23255 0.759198)
(100.446 -1.228 0.761815)
(100.458 -1.22333 0.762675)
(100.466 -1.2189 0.762049)
(100.471 -1.21473 0.76021)
(100.474 -1.21088 0.75746)
(100.476 -1.20744 0.754137)
(100.478 -1.20456 0.750594)
(100.479 -1.20234 0.747178)
(100.48 -1.2009 0.744172)
(100.481 -1.20038 0.741768)
(100.483 -1.20096 0.740032)
(100.484 -1.20283 0.738913)
(100.487 -1.20609 0.738261)
(100.492 -1.21067 0.737918)
(100.501 -1.21598 0.737934)
(99.9948 0.0360797 0.00639998)
(99.9768 0.0743077 0.0133201)
(99.9424 0.116741 0.0215755)
(99.8887 0.165128 0.0320918)
(99.8103 0.220419 0.0460136)
(99.6981 0.281929 0.064857)
(99.5379 0.345369 0.090648)
(99.3095 0.398294 0.126026)
(98.984 0.411397 0.174428)
(98.4981 0.213705 0.240171)
(98.2422 0.0311811 0.273288)
(97.903 -0.627538 0.349423)
(97.973 -1.42461 0.428108)
(98.4509 -1.93973 0.496909)
(98.9461 -2.08854 0.545122)
(99.3354 -2.11936 0.576157)
(99.6496 -2.08071 0.598697)
(99.8863 -2.00779 0.617006)
(100.058 -1.92958 0.632134)
(100.182 -1.86052 0.644322)
(100.329 -1.90251 0.76796)
(100.362 -1.83791 0.775736)
(100.369 -1.79145 0.783191)
(100.372 -1.76307 0.790094)
(100.376 -1.74366 0.795643)
(100.375 -1.73015 0.799231)
(100.369 -1.72132 0.800597)
(100.359 -1.71578 0.799772)
(100.347 -1.7123 0.797006)
(100.332 -1.71012 0.792712)
(100.317 -1.70874 0.787428)
(100.3 -1.70793 0.781741)
(100.284 -1.70757 0.776223)
(100.267 -1.70774 0.771345)
(100.249 -1.70863 0.767421)
(100.23 -1.71056 0.764558)
(100.211 -1.71393 0.762632)
(100.192 -1.71914 0.761316)
(100.174 -1.72632 0.760175)
(100.153 -1.73434 0.758906)
(99.9958 0.0439368 0.00565312)
(99.9812 0.0909035 0.0118314)
(99.953 0.14419 0.0192037)
(99.908 0.207188 0.0285953)
(99.8397 0.283327 0.0410642)
(99.7372 0.375967 0.0580589)
(99.5813 0.487583 0.0816138)
(99.3398 0.616567 0.114512)
(98.9091 0.749206 0.160523)
(98.5684 0.7506 0.186653)
(97.7665 0.358568 0.25325)
(96.9747 -0.706377 0.337469)
(97.0793 -2.34747 0.428479)
(98.2025 -2.95018 0.500299)
(98.9173 -2.97721 0.534727)
(99.3828 -2.93501 0.547196)
(99.7444 -2.81478 0.556381)
(99.9867 -2.67609 0.566901)
(100.145 -2.54769 0.577905)
(100.241 -2.44359 0.588837)
(100.297 -2.38791 0.596976)
(100.197 -2.54552 0.723993)
(100.061 -2.53326 0.731071)
(99.932 -2.50691 0.732299)
(99.8156 -2.47637 0.72979)
(99.7044 -2.4499 0.723625)
(99.5974 -2.42846 0.713604)
(99.4959 -2.41066 0.700124)
(99.4009 -2.39538 0.684099)
(99.3125 -2.38185 0.666722)
(99.2303 -2.36942 0.64927)
(99.154 -2.3576 0.632943)
(99.0826 -2.34607 0.618717)
(99.0155 -2.33481 0.607249)
(98.9514 -2.32405 0.598805)
(98.8897 -2.31427 0.593237)
(98.8296 -2.30618 0.589954)
(98.7715 -2.30078 0.587998)
(98.717 -2.2996 0.586145)
(98.6617 -2.30523 0.583264)
(99.9972 0.0492761 0.00484071)
(99.9876 0.102374 0.0100128)
(99.9687 0.16381 0.0161552)
(99.9378 0.238735 0.0239056)
(99.8893 0.333522 0.0340787)
(99.8133 0.456945 0.0478051)
(99.6907 0.621981 0.0666699)
(99.4855 0.848044 0.0928629)
(99.0747 1.16526 0.129233)
(98.6696 1.32235 0.15116)
(97.7237 1.45595 0.18151)
(95.6324 0.67472 0.235034)
(94.4519 -3.46851 0.320313)
(98.278 -4.73448 0.392004)
(98.7966 -3.91989 0.362243)
(99.3794 -3.83143 0.315057)
(99.7794 -3.5914 0.310856)
(99.9535 -3.35123 0.337549)
(99.9896 -3.15503 0.366201)
(99.9134 -2.97806 0.377939)
(98.783 -2.71852 0.356636)
(95.0178 -2.47512 0.370365)
(95.0974 -2.5361 0.392628)
(95.1929 -2.56744 0.400041)
(95.2717 -2.58732 0.398192)
(95.3368 -2.60552 0.390052)
(95.3958 -2.6221 0.377575)
(95.4523 -2.63502 0.362669)
(95.5072 -2.64302 0.347096)
(95.5609 -2.6456 0.332273)
(95.6134 -2.64284 0.319179)
(95.6647 -2.63532 0.308387)
(95.7147 -2.62405 0.30001)
(95.7634 -2.61035 0.293836)
(95.8107 -2.59567 0.289363)
(95.8569 -2.58144 0.285836)
(95.9021 -2.56903 0.282254)
(95.9467 -2.55976 0.277368)
(95.9905 -2.55531 0.269591)
(96.0437 -2.55894 0.256761)
(99.999 0.0512884 0.00378634)
(99.9956 0.10682 0.00784605)
(99.9886 0.171962 0.0125454)
(99.9768 0.2531 0.0182568)
(99.9574 0.35872 0.0254256)
(99.9258 0.501751 0.034612)
(99.8735 0.70334 0.0464798)
(99.7858 1.00081 0.06162)
(99.6136 1.46566 0.0801107)
(99.3468 1.8578 0.0913472)
(98.6279 2.77767 0.103127)
(95.4862 5.73702 0.119107)
(77.251 -4.45727 0.192433)
(52.9534 -3.80825 -1.50911)
(72.1566 -3.82266 -0.696574)
(75.3588 -2.86146 -0.704364)
(78.8999 -2.66565 -0.599888)
(82.3081 -2.74901 -0.43294)
(85.2856 -2.94856 -0.282154)
(92.2005 -3.58625 -0.329072)
(96.2231 -3.38953 -0.537612)
(96.3454 -3.26277 -0.553018)
(96.4834 -3.17346 -0.559056)
(96.6006 -3.10947 -0.557292)
(96.705 -3.06064 -0.548439)
(96.8049 -3.02136 -0.533504)
(96.9017 -2.98805 -0.514072)
(96.9938 -2.95814 -0.491996)
(97.0802 -2.92996 -0.469117)
(97.1603 -2.90263 -0.447088)
(97.2343 -2.8759 -0.427262)
(97.3028 -2.84998 -0.41062)
(97.3665 -2.82528 -0.397782)
(97.4267 -2.80231 -0.389032)
(97.4844 -2.78149 -0.384428)
(97.5408 -2.76304 -0.383984)
(97.5967 -2.74683 -0.387765)
(97.6527 -2.73212 -0.396012)
(97.7219 -2.71677 -0.408748)
(100.001 0.0492718 0.00276174)
(100.004 0.10279 0.00565495)
(100.01 0.166043 0.00881395)
(100.02 0.245507 0.0123147)
(100.033 0.349898 0.0161827)
(100.054 0.492262 0.0203296)
(100.087 0.69327 0.0243502)
(100.147 0.987707 0.0271063)
(100.284 1.43635 0.0258954)
(100.33 1.83936 0.0240716)
(100.594 2.80803 0.0127574)
(102.378 5.30486 -0.0237322)
(110.915 3.96904 -0.0527275)
(108.947 -6.52544 -0.161456)
(102.732 -6.71909 -0.259384)
(101.094 -4.89911 -0.317604)
(100.658 -3.90336 -0.353879)
(100.494 -3.36578 -0.37823)
(100.418 -3.05839 -0.393813)
(100.358 -2.88429 -0.40388)
(100.258 -2.71392 -0.477979)
(100.284 -2.35601 -0.664313)
(100.269 -2.25291 -0.672429)
(100.26 -2.19167 -0.677016)
(100.255 -2.15527 -0.680829)
(100.251 -2.13018 -0.68387)
(100.248 -2.11145 -0.685355)
(100.246 -2.0974 -0.68486)
(100.244 -2.08692 -0.682353)
(100.242 -2.07913 -0.678052)
(100.239 -2.07346 -0.672369)
(100.236 -2.06958 -0.665862)
(100.231 -2.06728 -0.65917)
(100.226 -2.06638 -0.652925)
(100.221 -2.0667 -0.647782)
(100.216 -2.06794 -0.644352)
(100.211 -2.06964 -0.643238)
(100.208 -2.07105 -0.645009)
(100.207 -2.07086 -0.65013)
(100.215 -2.06661 -0.658482)
(100.003 0.0432146 0.00174938)
(100.012 0.0903214 0.0035568)
(100.031 0.145886 0.00527539)
(100.06 0.215589 0.00670559)
(100.104 0.306587 0.00750827)
(100.17 0.428587 0.00706356)
(100.271 0.595279 0.00420715)
(100.433 0.825573 -0.0032177)
(100.742 1.14317 -0.019272)
(100.963 1.37783 -0.0303037)
(101.797 1.82506 -0.0689439)
(103.382 1.72636 -0.141857)
(105.132 -0.243928 -0.245058)
(104.686 -2.78279 -0.357903)
(102.932 -3.50748 -0.445801)
(101.744 -3.29301 -0.501935)
(101.134 -2.95089 -0.534548)
(100.807 -2.6655 -0.553366)
(100.615 -2.45502 -0.564971)
(100.485 -2.30159 -0.572841)
(100.39 -2.17869 -0.577691)
(100.288 -1.89875 -0.734698)
(100.252 -1.8652 -0.736757)
(100.228 -1.83871 -0.738131)
(100.214 -1.81794 -0.738861)
(100.207 -1.79974 -0.738588)
(100.205 -1.78272 -0.737026)
(100.205 -1.76676 -0.734134)
(100.207 -1.75193 -0.730063)
(100.21 -1.73821 -0.725085)
(100.214 -1.72562 -0.719553)
(100.217 -1.71422 -0.713861)
(100.22 -1.70406 -0.708409)
(100.222 -1.69516 -0.703558)
(100.224 -1.68741 -0.69967)
(100.224 -1.68059 -0.697076)
(100.225 -1.67435 -0.696107)
(100.227 -1.66817 -0.697095)
(100.231 -1.66157 -0.700345)
(100.242 -1.6547 -0.706021)
(100.004 0.0336582 0.000971429)
(100.019 0.0702708 0.00188647)
(100.047 0.113307 0.00242027)
(100.092 0.166932 0.00217014)
(100.159 0.235828 0.000529769)
(100.256 0.325573 -0.00346452)
(100.399 0.442147 -0.0113694)
(100.612 0.589763 -0.0257304)
(100.938 0.764578 -0.0507219)
(101.413 0.847105 -0.0923382)
(102.037 0.753855 -0.15651)
(102.698 0.241927 -0.246239)
(103.05 -0.714488 -0.352039)
(102.813 -1.5245 -0.461635)
(102.194 -1.8275 -0.551311)
(101.587 -1.83644 -0.61379)
(101.157 -1.75763 -0.654488)
(100.875 -1.66174 -0.681259)
(100.684 -1.57181 -0.699491)
(100.548 -1.49291 -0.711815)
(100.451 -1.42423 -0.719609)
(100.384 -1.36183 -0.723577)
(100.337 -1.3108 -0.726824)
(100.303 -1.26781 -0.729531)
(100.279 -1.23215 -0.731133)
(100.262 -1.20269 -0.731546)
(100.25 -1.17805 -0.730961)
(100.243 -1.15728 -0.729564)
(100.238 -1.1398 -0.727508)
(100.235 -1.12518 -0.724965)
(100.234 -1.11309 -0.722138)
(100.233 -1.10326 -0.719252)
(100.233 -1.09546 -0.716547)
(100.233 -1.08943 -0.714257)
(100.233 -1.08489 -0.712633)
(100.234 -1.0815 -0.711918)
(100.234 -1.07885 -0.712356)
(100.236 -1.07653 -0.714186)
(100.239 -1.07424 -0.717613)
(100.245 -1.07205 -0.722664)
(100.005 0.0213183 0.000418409)
(100.024 0.0444142 0.000693035)
(100.059 0.0715817 0.000398571)
(100.114 0.105091 -0.000986801)
(100.195 0.147442 -0.00428095)
(100.31 0.201043 -0.010563)
(100.471 0.267229 -0.0215013)
(100.693 0.343566 -0.0395212)
(100.996 0.417438 -0.0679593)
(101.386 0.451306 -0.11081)
(101.84 0.390831 -0.171575)
(102.261 0.162683 -0.250868)
(102.484 -0.244828 -0.342588)
(102.379 -0.66146 -0.434438)
(102.007 -0.89833 -0.513846)
(101.568 -0.957929 -0.573765)
(101.202 -0.933286 -0.616031)
(100.936 -0.884922 -0.645802)
(100.743 -0.835204 -0.667234)
(100.599 -0.790293 -0.68263)
(100.49 -0.752274 -0.693339)
(100.408 -0.723413 -0.700466)
(100.347 -0.702965 -0.705442)
(100.301 -0.688418 -0.708675)
(100.267 -0.678132 -0.710173)
(100.243 -0.670947 -0.710093)
(100.226 -0.665816 -0.708716)
(100.214 -0.66199 -0.706319)
(100.206 -0.659085 -0.703158)
(100.201 -0.656914 -0.699493)
(100.199 -0.655356 -0.695595)
(100.199 -0.654344 -0.69173)
(100.199 -0.653811 -0.688148)
(100.201 -0.653697 -0.685076)
(100.203 -0.653857 -0.682763)
(100.205 -0.654193 -0.681361)
(100.208 -0.654545 -0.681022)
(100.213 -0.654756 -0.681921)
(100.22 -0.654713 -0.68425)
(100.233 -0.6544 -0.688256)
(100.006 0.00729972 0.000130327)
(100.026 0.0152136 0.000123145)
(100.065 0.0244614 -0.000621907)
(100.125 0.035795 -0.00251634)
(100.212 0.0499977 -0.00665066)
(100.335 0.0677088 -0.0139946)
(100.501 0.0889124 -0.0262325)
(100.724 0.112177 -0.0456276)
(101.009 0.132459 -0.0751819)
(101.351 0.137847 -0.117582)
(101.717 0.10912 -0.174864)
(102.034 0.0262869 -0.246435)
(102.202 -0.108015 -0.327316)
(102.146 -0.248005 -0.408448)
(101.888 -0.337284 -0.480402)
(101.542 -0.366247 -0.53791)
(101.219 -0.362367 -0.580655)
(100.962 -0.348958 -0.611743)
(100.768 -0.334803 -0.634634)
(100.619 -0.321951 -0.651479)
(100.504 -0.310947 -0.663629)
(100.417 -0.302036 -0.672081)
(100.351 -0.294461 -0.677754)
(100.303 -0.28747 -0.681229)
(100.267 -0.280638 -0.682978)
(100.241 -0.27382 -0.683222)
(100.222 -0.266956 -0.682188)
(100.209 -0.260073 -0.680157)
(100.2 -0.253281 -0.677414)
(100.195 -0.246717 -0.674236)
(100.192 -0.240502 -0.670891)
(100.191 -0.234732 -0.667628)
(100.191 -0.229471 -0.66467)
(100.193 -0.224748 -0.662171)
(100.195 -0.220527 -0.66056)
(100.198 -0.216792 -0.659831)
(100.201 -0.213501 -0.66008)
(100.206 -0.210614 -0.661461)
(100.212 -0.208196 -0.66415)
(100.221 -0.206716 -0.668373)
(99.994 0.00535021 0.0119765)
(99.9735 0.0109264 0.0247551)
(99.9354 0.0168573 0.0397272)
(99.8787 0.0231303 0.0584433)
(99.8021 0.0294625 0.0825951)
(99.7035 0.0351042 0.11418)
(99.5825 0.0384916 0.155331)
(99.4413 0.0368546 0.208387)
(99.2885 0.0258334 0.275403)
(99.1418 -0.000390334 0.357174)
(99.0313 -0.0472404 0.452275)
(98.9939 -0.112579 0.555869)
(99.0534 -0.179667 0.659704)
(99.2018 -0.230283 0.755179)
(99.3994 -0.255045 0.835902)
(99.6024 -0.262662 0.901163)
(99.7862 -0.260884 0.953261)
(99.9429 -0.254186 0.99509)
(100.072 -0.245688 1.02872)
(100.175 -0.237742 1.05559)
(100.258 -0.231123 1.07681)
(100.322 -0.225616 1.09369)
(100.373 -0.221102 1.10751)
(100.413 -0.217919 1.11888)
(100.445 -0.215938 1.12796)
(100.471 -0.214728 1.13478)
(100.492 -0.21401 1.13946)
(100.509 -0.213621 1.1423)
(100.522 -0.213416 1.14369)
(100.532 -0.213274 1.14399)
(100.54 -0.213135 1.14348)
(100.546 -0.212995 1.14246)
(100.55 -0.21287 1.14126)
(100.553 -0.21279 1.14007)
(100.555 -0.212792 1.13904)
(100.557 -0.212941 1.13818)
(100.56 -0.213295 1.13744)
(100.565 -0.213899 1.13671)
(100.571 -0.214816 1.13574)
(100.583 -0.216189 1.13413)
(99.9941 0.0159123 0.011705)
(99.9741 0.0325546 0.024223)
(99.9367 0.0503952 0.0389687)
(99.8805 0.0695371 0.0574858)
(99.8035 0.0893384 0.0815208)
(99.7024 0.107833 0.113219)
(99.5745 0.120655 0.155045)
(99.4196 0.119625 0.209818)
(99.243 0.0911625 0.280311)
(99.0614 0.0160426 0.368361)