/*--------------------------------*- C++ -*----------------------------------*\
| =========                 |                                                 |
| \\      /  F ield         | OpenFOAM: The Open Source CFD Toolbox           |
|  \\    /   O peration     | Version:  2306                                  |
|   \\  /    A nd           | Website:  www.openfoam.com                      |
|    \\/     M anipulation  |                                                 |
\*---------------------------------------------------------------------------*/
FoamFile
{
    version     2.0;
    format      ascii;
    arch        "LSB;label=32;scalar=64";
    class       volVectorField;
    location    "1.8";
    object      Force;
}
// * * * * * * * * * * * * * * * * * * * * * * * * * * * * * * * * * * * * * //

dimensions      [1 1 -2 0 0 0 0];

internalField   uniform (0 0 0);

boundaryField
{
    walls
    {
        type            calculated;
        value           uniform (0 0 0);
    }
    inlet
    {
        type            calculated;
        value           uniform (0 0 0);
    }
    outlet
    {
        type            calculated;
        value           uniform (0 0 0);
    }
    NASA
    {
        type            calculated;
        value           nonuniform List<vector> 
14179
(
(-0.0141895 -0.130546 2.85136e-06)
(-0.0126227 -0.104402 1.77012e-06)
(-0.0650913 -0.526703 0.000265577)
(-0.0999769 -0.804084 0.00077694)
(-0.0639532 -0.517956 0.000140066)
(-0.109162 -0.877812 0.000896114)
(0.221262 0.960784 -0.000108548)
(0.0947092 0.475487 -3.80906e-05)
(0.691303 3.38953 0.00474873)
(0.0996208 0.500164 -4.18922e-05)
(0.00122448 0.00310807 -1.25893e-06)
(-0.0177832 -0.145414 0.000176956)
(0.130858 0.653445 -0.000577225)
(-0.0354505 -0.322396 0.000511726)
(0.0620371 0.309618 -0.000255768)
(1.37736 0.929092 0.00280934)
(1.39162 0.922152 -0.000213815)
(0.024065 0.135301 -2.27633e-05)
(0.163908 0.972741 -8.97184e-05)
(1.28901 0.85438 -0.000298769)
(-0.0167598 -0.234588 -1.4258e-05)
(-0.0207899 -0.193394 -0.000136573)
(-0.0191721 -0.266287 -0.000251219)
(-0.00829663 -0.0604984 1.0727e-06)
(-0.0127904 -0.105851 9.66122e-06)
(-0.00896863 -0.0653974 9.92012e-06)
(-0.0129788 -0.106893 0.000192498)
(-0.0151431 -0.108528 0.000202242)
(-0.0133634 -0.122044 0.000221638)
(-0.0157216 -0.215723 0.00343194)
(0.047345 0.206761 3.30148e-05)
(0.0534628 0.2521 8.20909e-06)
(0.0574706 0.271001 -6.04135e-05)
(0.0467073 0.203471 -1.66646e-05)
(0.0623583 0.228804 -2.41405e-06)
(0.0629161 0.230768 8.44194e-06)
(0.0309858 0.112446 -6.33814e-07)
(0.0319722 0.115993 3.25339e-06)
(-0.00176362 -0.00855585 0.000131349)
(-0.0131306 -0.0638839 0.000578018)
(0.169302 0.618242 -0.000264253)
(0.0989675 0.356769 0.000196933)
(0.100774 0.505864 -2.97622e-05)
(-0.00563843 -0.0397213 2.19035e-06)
(-0.00515137 -0.0362835 -5.30508e-06)
(0.161059 0.809031 -4.11388e-05)
(-0.00977513 -0.0676315 0.000160364)
(0.0973126 0.485738 5.39756e-06)
(0.0904322 0.451796 -0.000107396)
(0.108597 0.443694 -0.000320908)
(0.0849357 0.315739 -1.55395e-05)
(0.084601 0.314479 -2.57527e-05)
(-0.0592902 1.44827 -8.07855e-05)
(1.38739 0.922353 -0.000718378)
(-0.0446309 1.09327 7.4756e-05)
(-0.0024624 1.2228 -4.17513e-05)
(0.0703608 1.06491 4.04802e-05)
(0.0699562 1.0569 -0.000138495)
(-0.00217743 0.970162 -1.18675e-05)
(0.0892705 0.350948 -2.64823e-05)
(0.167212 0.991619 -6.31474e-05)
(0.00816434 0.029734 7.12947e-05)
(-0.0229419 0.569816 -7.18043e-05)
(0.932554 0.636265 0.0786671)
(-0.000733219 0.535777 -0.0003631)
(0.0271991 0.413262 -0.000156694)
(0.128058 0.749408 0.00793442)
(-0.0143362 -0.143489 5.03364e-06)
(-0.0141326 -0.130103 4.54962e-06)
(-0.0982897 -0.790635 0.000761743)
(-0.0110841 -0.0879632 2.14444e-06)
(-0.0126002 -0.104224 3.51037e-06)
(1.33324 0.882664 -0.000961305)
(1.28639 0.851919 -0.000712355)
(0.346787 2.05575 -0.00237496)
(0.261241 1.54317 -0.00145961)
(-0.110644 -0.890871 -0.000573732)
(-0.0554932 -0.345413 0.000384682)
(-0.0547896 -0.343171 0.000369989)
(-0.0413289 -0.242549 0.000293761)
(0.156896 0.676936 -0.000727283)
(0.175566 0.758986 -0.000789076)
(0.762689 1.30946 -5.81781e-05)
(0.763278 1.30847 -0.000335218)
(0.0934759 0.469118 -2.71893e-05)
(0.0882069 0.423823 -2.13323e-05)
(9.81989e-05 -0.000875192 -1.10474e-06)
(0.00185483 0.00979536 -4.12871e-08)
(0.00189304 0.0100151 -1.77482e-06)
(0.000105382 -0.000824318 1.20575e-07)
(0.0990346 0.497164 -1.31815e-05)
(0.0953371 0.491799 -2.92616e-05)
(-0.0200629 -0.163964 0.000198589)
(-0.0134121 -0.0960687 0.000133361)
(-0.0202514 -0.144614 0.000174469)
(-0.0122296 -0.0843036 0.000126046)
(-0.0179954 -0.123413 0.000106806)
(0.085852 0.428336 -0.000479825)
(-0.0200701 -0.182575 0.000204424)
(-0.0246664 -0.33924 0.000677595)
(-0.0209069 -0.293676 -0.000255989)
(0.0805163 0.402082 -0.00042143)
(1.37456 0.923115 -0.00270215)
(0.0997005 0.587833 -3.71039e-05)
(0.108368 0.606151 -2.00699e-05)
(0.109075 0.609865 -3.7153e-05)
(0.182014 1.26729 -7.0632e-05)
(0.108412 0.643099 -2.75358e-05)
(0.164369 0.975204 -4.555e-05)
(0.0191744 0.0181028 1.7893e-05)
(0.344011 -0.126768 0.00345277)
(0.357739 -0.141827 0.0016877)
(0.0106107 0.0101671 -2.83586e-05)
(-0.00610286 -0.0263056 0.000105274)
(0.0226585 0.0835472 -2.99005e-05)
(0.00319823 0.0112048 6.24524e-05)
(0.023042 0.0927848 6.26696e-05)
(-0.0090077 -0.0402434 6.42987e-05)
(-0.00115126 -0.00712232 8.88639e-05)
(0.00493149 0.0206871 2.70966e-05)
(-0.0178391 -0.0862987 9.94659e-05)
(-0.00105867 0.732576 -0.000618242)
(0.0408269 0.609662 -0.000567545)
(-0.00154472 0.98104 -0.000873746)
(0.0319184 0.483183 -0.000773398)
(-0.0347806 0.869794 -0.000943994)
(1.11351 0.749023 -0.000604993)
(-0.0471264 1.16619 -0.0010207)
(0.110202 0.652069 -0.00162606)
(0.156795 0.61395 -0.000858337)
(0.11795 0.461244 -0.000394844)
(0.108667 0.396493 -0.000315492)
(0.153613 0.561175 -0.000469176)
(0.063213 0.228063 -0.000178803)
(0.086341 0.312028 -0.000326932)
(-0.0129426 -0.145867 -3.06319e-06)
(-0.016646 -0.232686 4.68676e-06)
(-0.0101327 -0.0781189 2.0647e-06)
(-0.00814922 -0.0594276 1.25346e-06)
(0.000329972 0.000345771 0.539716)
(-0.0129991 -0.102277 0.000188564)
(0.000303207 0.000332285 0.513178)
(-0.0144533 -0.110122 0.000210169)
(0.000594187 0.000525409 0.584188)
(-0.0130942 -0.130711 0.00030504)
(0.000822289 0.000981608 0.585287)
(-0.0122073 -0.140534 0.00111943)
(0.0532475 0.251075 -1.78342e-05)
(0.0396504 0.180341 -4.81764e-06)
(0.0399663 0.181797 -1.28836e-05)
(0.0469309 0.204402 -9.70334e-06)
(0.046228 0.203638 -7.13196e-06)
(0.0464668 0.204697 -1.3037e-05)
(0.0619277 0.227097 -3.68969e-07)
(0.0244882 0.121818 -8.88666e-06)
(0.0219475 0.111379 -7.8211e-06)
(0.0314785 0.114182 3.16127e-06)
(0.0264589 0.0931078 -1.17022e-06)
(-0.00624995 -0.028646 0.000202149)
(-0.00535476 -0.0255344 0.000232729)
(0.000263763 0.000244854 0.32461)
(0.000269571 0.000221284 0.318008)
(0.000262418 0.000214781 0.314165)
(0.000286532 0.000235822 0.360912)
(0.0933628 0.318113 0.000417885)
(0.159443 0.557472 0.00404175)
(-3.84476e-05 0.000314574 0.340076)
(0.000198737 -8.57001e-05 0.307287)
(0.0001206 9.52057e-05 0.109176)
(0.0815654 0.286324 0.000181074)
(0.285257 0.662666 -2.44444e-06)
(0.16841 0.593722 6.428e-05)
(0.166727 0.587824 -2.11376e-05)
(0.0822809 0.38433 -1.65028e-05)
(0.0827484 0.386399 -1.62297e-05)
(0.13954 0.666623 -2.80156e-05)
(0.0783437 0.34879 -1.21983e-05)
(0.083505 0.379078 -1.37757e-05)
(0.0834779 0.378739 -1.49696e-05)
(0.0787024 0.350636 -8.19652e-06)
(-0.00419395 -0.0297995 -3.82349e-07)
(-0.00556646 -0.0392189 -2.63656e-07)
(0.154075 0.816346 -2.57982e-05)
(0.272504 0.469946 0.011622)
(0.00060759 0.00239493 0.875188)
(0.000352211 0.00104798 0.417592)
(0.0498664 0.145057 0.000163773)
(-0.0118187 -0.0737302 0.000224001)
(-0.0118849 -0.0750182 0.000368597)
(0.000673725 0.00102835 0.685995)
(0.000203253 -5.94999e-05 0.313112)
(0.0964554 0.495043 0.000989043)
(0.000346731 -0.000160225 0.377223)
(0.140372 0.737724 0.00542998)
(0.000396886 0.00037733 0.350306)
(0.000253005 0.00022864 0.332966)
(-0.000506204 -0.000122725 0.356299)
(6.89117e-05 0.000186462 0.11323)
(0.080611 0.385118 -0.000120702)
(0.103273 0.479749 0.000888778)
(0.000357846 -1.84522e-05 0.207478)
(9.40994e-05 0.000292185 0.108549)
(0.169558 0.712535 0.00194244)
(0.0849621 0.315826 -1.50268e-05)
(0.0809764 0.309987 -2.00971e-05)
(0.0967381 0.394369 -2.52955e-05)
(0.0678433 0.273254 -6.78649e-06)
(-0.805999 2.57681 -0.0197848)
(-0.0493844 1.20928 -1.34245e-05)
(-0.156919 1.46679 0.000642768)
(0.0698896 1.05546 -8.96238e-05)
(0.0515953 1.10442 -5.06644e-05)
(-0.00227411 1.04087 -2.55165e-05)
(0.0277494 1.0496 -3.4991e-05)
(0.109663 1.20417 -4.78699e-05)
(0.140719 1.81801 -6.9854e-05)
(0.139079 1.79592 -8.94583e-05)
(0.108976 1.19725 -6.04168e-05)
(0.124731 1.27451 -6.73488e-05)
(0.127247 1.18423 2.07663e-07)
(0.131161 1.22084 -9.93861e-05)
(0.120856 1.23467 2.11393e-06)
(0.062758 0.259989 -4.56902e-06)
(0.0567242 0.225042 -3.76528e-06)
(0.0887835 0.348791 1.27059e-06)
(0.115091 0.779685 -6.67225e-05)
(0.117971 0.743077 -3.29981e-05)
(-0.000622262 -0.000499641 0.574425)
(0.000551768 0.00168903 0.90598)
(0.00162235 0.00559003 0.000131803)
(2.53398e-05 0.00221602 0.749374)
(0.00280505 0.00984859 0.000130662)
(0.000221609 0.00969851 0.275279)
(-0.061114 0.586629 -0.000644732)
(0.00715062 -0.00423918 1.75621)
(0.000225258 0.000252899 0.30558)
(0.0142479 0.520507 -0.000407136)
(0.000621356 -0.000137638 0.24645)
(0.0234101 0.48976 -0.000245539)
(0.061809 0.531711 -0.000401071)
(0.0615391 0.521819 -0.000364267)
(0.000268238 0.000213778 0.246016)
(0.000292047 0.000232588 0.270597)
(0.0579451 0.53453 -0.000302822)
(0.0526619 0.531187 -1.46491e-05)
(0.0476351 0.521376 0.00131342)
(1.83461e-05 -0.000905126 0.225736)
(-0.0193576 -0.10625 0.00109307)
(-6.64689e-05 0.000316863 0.508413)
(0.09197 0.511378 2.92943e-05)
(0.000259764 0.000216051 0.324018)
(0.000263158 0.000218332 0.325483)
(0.478491 -0.190629 -0.00395003)
(0.226043 0.213727 0.00241043)
(0.00017063 3.63498e-05 0.0806748)
(-0.0524859 -0.516423 0.00040571)
(-0.0686965 -0.555158 0.000442086)
(-0.0558243 -0.548552 0.000494248)
(-0.069165 -0.55888 0.00045145)
(-0.075345 -0.607949 0.000554794)
(-0.0583337 -0.572678 0.000532038)
(-0.0816696 -0.658193 0.000619812)
(0.178089 0.770754 -0.000812733)
(0.448541 2.19631 -0.00214079)
(0.181605 0.786411 -0.000825686)
(0.427822 2.09427 -0.00205055)
(-0.0640787 -0.518848 0.000158306)
(-0.0409842 -0.255698 0.000265875)
(-0.104315 -0.838664 0.000818341)
(-0.0467605 -0.291269 0.00030507)
(1.395 0.924358 -0.000396614)
(1.39307 0.923092 -0.000205951)
(0.236446 1.02678 -0.000159611)
(0.71522 3.50974 -0.000863852)
(0.627621 3.07934 -0.000471821)
(0.241 1.04642 -0.000276758)
(0.42393 2.5131 -0.000431505)
(0.459142 2.72159 -0.00074604)
(0.000724594 0.00114536 6.1443e-07)
(0.00121464 0.00355666 -6.178e-07)
(0.0239732 0.135867 -3.95327e-05)
(0.0244509 0.138071 -2.73556e-05)
(0.0520698 0.226108 -9.90898e-05)
(0.038457 0.174817 -7.58546e-05)
(0.0621933 0.270808 -0.000156914)
(0.0302144 0.136451 -2.55163e-05)
(-0.108366 -0.872012 0.000902267)
(-0.0687551 -0.499637 0.00051373)
(0.0201651 0.095387 3.25098e-05)
(-0.00946804 -0.0529093 0.000114707)
(0.0632978 0.230807 -0.000252158)
(0.0713242 0.260041 -0.000260456)
(0.0343807 0.123927 -0.000137101)
(0.0398396 0.143598 -0.000144129)
(0.29322 1.32664 -0.000179939)
(0.179701 0.779764 5.88194e-06)
(0.326588 1.54421 -0.000257844)
(0.147913 0.742323 -5.36826e-05)
(-0.0183184 -0.154301 0.00015965)
(-0.0411943 -0.305753 0.00028265)
(-0.00670979 -0.0490839 -1.53018e-05)
(0.0019979 0.00717905 -3.62438e-06)
(-0.0169083 -0.11632 1.83203e-05)
(-0.0224253 -0.157587 6.46266e-05)
(0.0975522 0.39888 0.000163522)
(0.0843598 0.313593 -5.49349e-05)
(0.0845018 0.314117 -3.53566e-05)
(0.10908 0.447507 -0.000660459)
(0.166753 0.732469 -0.000148448)
(0.143302 0.66041 1.75248e-05)
(0.174069 0.765157 -0.000126355)
(0.183593 0.856245 1.5101e-05)
(-0.00263241 1.29067 -3.98978e-05)
(0.0759191 1.14474 -0.000260953)
(-0.00295923 1.42687 -0.000216805)
(0.071278 1.07654 -0.000163836)
(-0.0621716 1.51975 -7.416e-05)
(1.39017 0.922503 -0.000374791)
(-0.0672029 1.64374 -0.000257752)
(0.452594 3.88042 -0.00156366)
(0.0882517 0.346884 -1.9754e-05)
(0.0854075 0.335551 -6.47471e-05)
(0.0682494 0.250218 -2.54173e-05)
(0.0646446 0.237139 5.19075e-06)
(0.0581512 0.304891 -8.44865e-05)
(0.18663 0.92131 -0.00104142)
(0.0232237 0.129708 -6.15929e-05)
(0.0487696 0.26181 -4.27423e-05)
(0.771602 4.8274 0.00274)
(0.364846 2.43737 0.000629806)
(0.0351795 0.127551 -9.52435e-06)
(0.0326916 0.11862 2.56974e-06)
(1.27073 0.844211 0.000755955)
(0.090436 0.626104 -0.000640056)
(0.2521 0.236468 -0.00010805)
(0.500209 -0.207411 -1.57642e-05)
(0.238955 0.224837 -0.000183154)
(0.518654 -0.215427 -0.000282662)
(0.0623193 0.228545 1.79687e-06)
(0.027689 0.0974029 3.6812e-06)
(0.0318068 0.115379 4.54417e-06)
(0.28535 0.662873 -1.67378e-05)
(0.275983 0.810109 -5.22772e-05)
(0.000497443 0.00124177 0.738803)
(0.000177926 0.000392713 0.365983)
(0.000342466 -0.000161693 0.386464)
(-0.187867 1.74181 -0.000138605)
(-0.0550204 1.3453 -1.00799e-05)
(1.38331 0.923015 -0.00142946)
(0.0240185 0.0226871 2.11043e-05)
(0.356871 -0.146666 0.000133433)
(0.358701 -0.145827 0.000578558)
(0.0228935 0.0215873 1.14599e-05)
(0.000263859 3.44185e-05 0.552302)
(0.00022018 -1.09924e-06 0.383766)
(0.000223286 0.000188629 0.344467)
(0.000405802 0.000380144 0.369388)
(-0.0890971 -0.717366 0.000682058)
(1.37056 0.907446 -0.00101009)
(1.35782 0.898986 -0.000990858)
(1.33133 0.881417 -0.00096103)
(1.35709 0.898498 -0.000989333)
(0.397449 1.94446 -0.00190953)
(0.174915 0.756374 -0.000793848)
(0.176766 0.764887 -0.000806019)
(0.420011 2.05585 -0.00201863)
(0.270797 1.59993 -0.00154359)
(0.289679 1.71182 -0.0016177)
(-0.0227887 -0.134899 0.000155557)
(-0.0296163 -0.174395 0.00019885)
(-0.0542947 -0.337812 0.000365674)
(-0.048816 -0.303928 0.00032085)
(-0.0393911 -0.231103 0.000270544)
(-0.0321816 -0.189236 0.000216652)
(0.254093 2.16149 -0.00199017)
(0.241172 2.05099 -0.00200842)
(0.0259045 0.0956223 -4.50884e-05)
(0.0244889 0.0989494 -7.2376e-05)
(0.0362762 0.147504 0.00012142)
(0.0339942 0.125715 -8.48737e-05)
(0.00231878 0.00934432 6.36481e-05)
(0.0291179 0.124747 5.00607e-05)
(0.0382561 0.165316 -2.9475e-05)
(0.0234611 0.104618 4.87747e-05)
(0.0420009 0.155502 -0.000121201)
(0.0464537 0.189419 0.000113704)
(0.0362868 0.134245 -9.57731e-05)
(0.0426744 0.636971 -0.000579708)
(-0.00162814 1.02413 -0.000911609)
(-0.0018179 1.1286 -0.00100234)
(0.0469743 0.701402 -0.00064265)
(-0.0545179 1.3479 -0.0011871)
(1.32037 0.874124 -0.000943323)
(-0.0570027 1.40899 -0.00124411)
(-0.0489542 1.21112 -0.00106386)
(-0.0533179 1.31842 -0.00116037)
(1.31774 0.872376 -0.000942336)
(-0.00187142 1.15693 -0.00102776)
(0.0512963 0.767052 -0.000695932)
(-0.00197766 1.21352 -0.00108014)
(0.0482846 0.721457 -0.000632584)
(0.227082 1.341 -0.00125052)
(0.411869 2.56412 -0.00446427)
(0.237782 1.58346 -0.00151904)
(0.247449 1.46126 -0.00144863)
(0.406226 2.53325 -0.00237861)
(0.378397 2.35868 -0.00227549)
(0.195796 1.30215 -0.0020784)
(-0.0806359 -0.591924 0.000230217)
(-0.101552 -0.817673 0.000822797)
(-0.065756 -0.436576 0.00046343)
(-0.0557508 -0.347481 0.000408959)
(-0.079184 -0.53127 0.000478628)
(-0.0521457 -0.325903 0.000401363)
(-0.0225443 -0.125681 0.000185738)
(-0.0432365 -0.25414 0.000335057)
(0.00676061 0.0270164 0.000233198)
(-0.0459139 -0.271197 0.000330901)
(0.231352 1.0396 -0.00110428)
(0.179443 0.775287 -0.000781769)
(0.237718 1.12015 -0.00111948)
(0.177178 0.765756 -0.000783465)
(0.224786 1.01341 -0.00102989)
(0.241805 1.13815 -0.00146539)
(0.368148 1.79912 -0.00188076)
(0.105724 0.413353 -0.000367493)
(0.0892006 0.348668 -0.000342241)
(0.0954336 0.348107 -0.000295218)
(0.0750771 0.273731 -0.000264074)
(0.0865709 0.33842 -0.000345939)
(0.0804853 0.314696 -0.000337915)
(0.0554101 0.199846 -0.000166306)
(0.0423982 0.152825 -0.000147146)
(0.126532 0.293289 -0.000210373)
(0.10767 0.24946 -0.000143562)
(-0.0206562 -0.156551 0.000198171)
(-0.0180609 -0.129191 0.00017223)
(0.081469 0.416408 -0.000706899)
(0.0860252 0.429393 -0.000407144)
(0.124517 0.657297 -0.00127265)
(-0.0192563 -0.190308 0.000146026)
(-0.0198443 -0.180927 0.000215397)
(-0.0171782 -0.189017 -9.88147e-05)
(-0.0212092 -0.294208 0.000267765)
(0.0773264 0.370118 -0.000503677)
(0.0819051 0.408872 -0.000375972)
(-0.00369078 -0.0156899 7.05352e-05)
(0.00660752 0.0256054 9.08079e-05)
(-5.75831e-05 -0.00101511 7.24944e-05)
(0.0135606 0.0497084 2.69605e-05)
(0.0176851 0.648802 -0.000567103)
(-0.00127331 0.846042 -0.000773688)
(0.0269678 0.568651 -0.000569986)
(0.0361687 0.541292 -0.000582293)
(-0.10579 1.00631 -0.00234286)
(-0.0411071 1.02 -0.000963492)
(1.23441 0.824364 0.00226757)
(-0.46509 1.51377 -0.00105848)
(-0.0449833 1.11408 -0.000996512)
(-0.141425 1.31667 -0.00111187)
(-0.0116233 -0.0607725 0.000121882)
(-0.00835741 -0.0430628 9.80103e-05)
(-0.0101664 -0.0521194 0.000113006)
(-0.00977552 -0.0513245 0.000107818)
(-0.0247479 -0.135863 6.90962e-05)
(0.000655092 0.000627673 0.391567)
(0.0585498 0.39391 -0.000389264)
(0.0925113 0.640582 -0.00075012)
(0.0606774 0.407954 -0.000468323)
(0.126954 0.463372 -0.000352121)
(0.154087 0.562681 -0.000442271)
(0.0731802 0.264114 -0.000196377)
(0.0618795 0.216478 -0.000168347)
(0.0814574 0.285511 -0.000404632)
(0.0893388 0.322631 -0.000263583)
(0.446187 -0.186462 -0.00277134)
(0.215689 0.198073 0.000763581)
(0.262751 0.244394 8.64657e-05)
(0.52116 -0.217429 -0.00110815)
(0.232244 1.00682 -0.000993835)
(0.587026 2.877 -0.00279862)
(0.228238 0.989593 -0.000975)
(0.563137 2.75977 -0.00269709)
(-0.0646391 -0.523174 0.000222097)
(-0.000157287 -0.00424236 3.95732e-06)
(0.000185208 -0.00213143 2.47315e-06)
(0.233138 1.01223 -0.000421544)
(0.638991 3.13466 -0.00166931)
(0.212093 0.920736 -0.000472783)
(-0.0605765 -0.440416 0.000430332)
(0.179317 0.788519 -0.000223525)
(0.145997 0.673837 -0.000212629)
(0.179474 0.789222 -0.000255182)
(0.145931 0.673486 -0.00019074)
(0.0653467 0.239541 -6.20704e-05)
(0.0675239 0.247578 -4.58135e-05)
(-0.03197 -0.234757 6.57391e-05)
(0.165791 0.820686 -0.00025404)
(0.0655717 0.344923 -0.000104692)
(0.0341008 0.123624 -3.39797e-05)
(0.0363038 0.131646 -2.53392e-05)
(1.39167 0.922298 -0.000213065)
(0.0261275 0.024552 4.6879e-06)
(0.349293 -0.144939 -2.68067e-06)
(0.0280025 0.0263142 1.21651e-06)
(0.350825 -0.145515 -5.33445e-06)
(-0.0197323 -0.12483 0.000128485)
(-0.0222008 -0.140032 0.000144343)
(-0.038898 -0.242852 0.000252153)
(-0.0940991 -0.757232 0.000724662)
(-0.033855 -0.211799 0.000218937)
(0.18356 0.795049 -0.000835139)
(0.195015 0.845382 -0.000873572)
(0.105254 0.460708 -0.000382039)
(0.0792916 0.364036 -0.000300219)
(0.108788 0.476291 -0.000399648)
(0.0759476 0.348552 -0.000282146)
(0.0455458 0.207763 -0.000119697)
(0.0708542 0.309032 -0.000202906)
(0.0777738 0.339554 -0.000240604)
(0.051453 0.235162 -0.000154533)
(0.0575078 0.210373 -0.000262324)
(0.0559525 0.204547 -0.000254069)
(0.0615163 0.224338 -0.000250493)
(0.0576953 0.2105 -0.000246825)
(0.0157154 0.0806149 -4.57084e-05)
(0.0714496 0.350721 -0.000272213)
(-0.0682063 -0.495514 0.000502734)
(0.027885 0.134026 -2.25745e-05)
(-0.00561743 -0.0323539 8.44154e-05)
(0.0350767 0.169903 -6.90876e-05)
(0.0311861 0.112827 -0.000146239)
(0.029864 0.10796 -0.000139625)
(0.0331593 0.119537 -0.000135742)
(0.030591 0.110331 -0.00013305)
(1.3322 0.881969 -0.000957666)
(1.30049 0.860989 -0.000856103)
(0.130247 0.122693 -0.000135116)
(0.35864 -0.148911 9.27965e-05)
(0.370029 -0.15364 9.74356e-05)
(0.118023 0.111166 -0.000126229)
(0.478969 -0.19863 7.37028e-05)
(0.222592 0.209645 -0.000196555)
(0.208247 0.196201 -0.000190839)
(0.458877 -0.190405 8.5747e-05)
(6.52704e-05 -0.0141271 7.72626e-06)
(0.000133111 -0.0090627 7.06608e-06)
(-0.0515255 -0.507252 0.000347173)
(-3.39088e-05 -0.0214037 1.83265e-05)
(-2.01371e-05 -0.0204243 1.46856e-05)
(-0.0667643 -0.539868 0.00037514)
(-0.0544756 -0.535579 0.000463622)
(-0.000228983 -0.0356562 3.40688e-05)
(-0.000157465 -0.0304449 2.83294e-05)
(-0.071997 -0.581362 0.000506114)
(-0.0725123 -0.58546 0.00051332)
(1.73666e-05 -0.0173699 2.12913e-05)
(-0.057315 -0.562879 0.000518838)
(-0.000158163 -0.0303275 3.14309e-05)
(-0.0788471 -0.635757 0.000593604)
(1.38623 0.917902 -0.00106191)
(1.38441 0.916684 -0.00105133)
(1.38219 0.915196 -0.00103945)
(1.38641 0.918003 -0.00105111)
(0.223228 0.968014 -0.000959523)
(0.524744 2.57163 -0.00250598)
(0.549981 2.69542 -0.00262754)
(0.189422 0.821415 -0.0008429)
(0.178908 0.774438 -0.000814878)
(0.236027 1.06508 -0.0010848)
(0.267199 1.26047 -0.00124874)
(0.441958 2.16389 -0.00211088)
(0.180352 0.780834 -0.000820242)
(0.243281 1.09825 -0.00111307)
(0.256574 1.20997 -0.00120463)
(0.434429 2.12682 -0.00208489)
(1.38851 0.919951 -0.000688641)
(1.3904 0.921258 -0.000575899)
(1.39412 0.92377 -0.000421754)
(1.39202 0.922336 -0.00055805)
(0.457456 2.71179 -0.000862131)
(0.467568 2.77169 -0.00121955)
(0.000605898 0.000446298 7.9257e-07)
(-0.0644534 -0.521721 0.000205975)
(0.000346294 -0.001139 1.93263e-06)
(0.0231221 0.130945 -6.7647e-05)
(0.023465 0.132945 -5.84299e-05)
(0.0238591 0.135233 -4.37046e-05)
(0.0236393 0.133959 -5.50865e-05)
(0.22774 0.988852 -0.000302649)
(0.228156 0.990619 -0.000362092)
(0.739843 3.63047 -0.00147339)
(-0.054504 -0.362202 0.000362266)
(-0.0428036 -0.266903 0.000277807)
(-0.0641778 -0.466369 0.000460267)
(-0.0448597 -0.279563 0.000291894)
(-0.0592598 -0.393489 0.0003977)
(0.423201 3.62006 -0.00101975)
(0.416717 3.5636 -0.000850746)
(0.0843405 0.313517 -6.28189e-05)
(0.10917 0.447904 0.000484739)
(0.109271 0.448324 -0.000692071)
(0.0842494 0.313177 -8.22908e-05)
(0.142405 0.656577 -0.000174133)
(0.177847 0.781926 -0.000160733)
(0.178843 0.786392 -0.000194672)
(0.145372 0.670754 -0.000168568)
(0.109253 0.448244 0.000447296)
(0.0841018 0.312623 -0.000107147)
(0.10919 0.447976 -0.000727344)
(0.0842042 0.313008 -8.94622e-05)
(0.0762146 1.14886 -0.000216731)
(-0.0030398 1.466 -0.000260265)
(-0.00318098 1.53137 -0.000395636)
(0.0710733 1.07092 -0.000288307)
(-0.0706382 1.72747 -0.000479789)
(1.39437 0.923951 -0.000325094)
(-0.0671143 1.64159 -0.000566574)
(-0.0684068 1.67314 -0.000303295)
(-0.070806 1.73158 -0.000439517)
(1.39381 0.923582 -0.000290996)
(-0.00315842 1.5202 -0.000427052)
(0.0640926 0.967696 -0.000314582)
(-0.00291644 1.40418 -0.000504317)
(0.0693295 1.04471 -0.000310066)
(0.317245 1.4357 -0.000192061)
(0.245701 1.06686 -0.000204822)
(0.682538 3.34918 -0.000635342)
(0.407025 1.92493 -0.000483165)
(0.346438 1.63847 -0.00018489)
(0.656625 3.2219 -0.000603593)
(0.247298 1.07372 -0.000240743)
(0.350624 1.58659 -0.000400445)
(0.0823213 0.323398 -6.7572e-05)
(0.0756064 0.297038 -6.5432e-05)
(0.0682907 0.250349 -2.76139e-05)
(0.06776 0.248455 -3.62108e-05)
(0.073104 0.287194 -6.77031e-05)
(0.678191 4.24191 -0.00109324)
(0.446547 2.64681 -0.000552731)
(0.69886 4.37218 -0.000960281)
(0.418269 2.79646 -0.00075646)
(0.423317 2.82947 -0.000629359)
(0.459309 2.72269 -0.000599659)
(-0.0301134 -0.221842 4.49084e-05)
(-0.0182793 -0.124113 3.60896e-05)
(0.000852125 0.0018496 1.66918e-07)
(-0.0174892 -0.119529 2.54401e-05)
(0.000910907 0.00203003 2.79791e-07)
(0.0648703 0.340712 -6.51975e-05)
(0.163459 0.808308 -0.000156535)
(0.165793 0.820391 -0.000197476)
(0.0499626 0.269321 -8.02467e-05)
(0.0240698 0.136355 -3.54659e-05)
(0.0500009 0.269021 -5.38946e-05)
(0.0241175 0.136465 -3.05587e-05)
(0.0356704 0.129323 -9.98748e-06)
(0.0365443 0.132528 -1.84328e-05)
(0.0655009 0.238824 -0.000254751)
(0.0679811 0.24785 -0.000256969)
(0.0317318 0.110895 -0.000123475)
(0.0358824 0.129334 -0.000139071)
(0.0376722 0.131659 -0.000131125)
(0.0375813 0.135452 -0.000140944)
(0.276427 0.811471 -0.000144129)
(0.276151 0.810606 -0.000102174)
(0.286617 0.665874 -9.54544e-05)
(0.286351 0.665254 -8.92903e-05)
(-0.1935 1.79382 -0.000149192)
(-0.0642162 1.57097 -0.00017222)
(1.39089 0.922162 -0.000256392)
(-0.870084 2.83013 -0.000385015)
(-0.0658731 1.61137 -0.00021638)
(-0.203839 1.88872 -0.000293864)
(0.0682447 0.250279 -1.76316e-05)
(0.0673591 0.2471 -1.31792e-06)
(0.034774 0.126117 -5.78311e-06)
(0.0301923 0.106139 -5.95054e-06)
(0.0281805 0.0991399 2.43669e-06)
(0.0338903 0.12295 -3.74434e-07)
(0.412591 2.44134 -0.00235908)
(0.390255 2.30889 -0.00224728)
(0.00139505 0.00502629 8.2275e-06)
(-0.00139386 -0.0111142 2.52596e-05)
(-0.0265212 -0.166639 0.000172011)
(-0.023318 -0.146913 0.000151248)
(-0.00626334 -0.0392917 5.48125e-05)
(-0.00266848 -0.01849 3.27062e-05)
(1.369 0.906417 -0.00100991)
(1.37776 0.912238 -0.00102418)
(1.38343 0.916013 -0.00103945)
(1.3784 0.912669 -0.00102572)
(-0.020335 -0.120704 0.000140523)
(-0.0145848 -0.0874368 0.000104991)
(0.352385 2.08389 -0.00198903)
(0.380039 2.2482 -0.00218291)
(-0.0926048 -0.745323 0.000711897)
(-0.0279693 -0.175557 0.000181073)
(-0.032087 -0.200913 0.000207614)
(-0.00791708 -0.0488607 6.45592e-05)
(-0.0125475 -0.0756508 9.27549e-05)
(0.196279 0.850887 -0.000864442)
(0.516294 2.53014 -0.00248047)
(0.189452 0.821459 -0.000840678)
(0.479885 2.35104 -0.00231964)
(0.283579 2.41319 -0.00224131)
(0.291899 2.48439 -0.00231911)
(0.067035 0.274051 0.000122099)
(0.054184 0.200836 -0.000172801)
(0.0569898 0.211275 -0.000184638)
(0.063127 0.257982 -0.000539981)
(0.100281 0.438789 -0.000357054)
(0.0673769 0.308885 -0.000238561)
(0.0958867 0.419421 -0.000334012)
(0.0714312 0.327646 -0.000260182)
(0.0602553 0.223427 -0.000198364)
(0.0579242 0.214753 -0.000188675)
(0.0718004 0.29365 0.000124864)
(-0.00228412 1.37416 -0.00122945)
(0.0575509 0.861087 -0.000780628)
(0.0588433 0.880525 -0.000798389)
(-0.00223316 1.34764 -0.00120399)
(-0.0641699 1.58508 -0.00140974)
(1.3675 0.905409 -0.00100244)
(-0.0648835 1.60254 -0.00142968)
(-0.0023022 1.38326 -0.00123816)
(0.0602966 0.902415 -0.000820281)
(-0.0023313 1.39646 -0.00125375)
(0.0592673 0.886908 -0.000804591)
(-0.063745 1.57465 -0.00139957)
(1.3649 0.903687 -0.000999171)
(-0.0625703 1.5458 -0.00137144)
(0.317781 2.70541 -0.00249915)
(0.311902 2.65515 -0.00245474)
(0.0438202 0.162274 -0.000129226)
(0.0481264 0.178297 -0.000147315)
(0.056617 0.231215 -0.000474776)
(0.0529765 0.196343 -0.000167881)
(0.0613067 0.250497 0.000118416)
(0.0495879 0.183734 -0.00015345)
(0.0844406 0.368954 -0.000276456)
(0.0619686 0.283856 -0.00021104)
(0.0896676 0.392004 -0.000303481)
(0.0572329 0.261933 -0.00018549)
(-0.057679 1.42555 -0.00125953)
(-0.0599339 1.48105 -0.00130871)
(1.34506 0.890516 -0.000973947)
(0.052131 0.779634 -0.000707462)
(-0.00201111 1.22951 -0.00109508)
(-0.00211142 1.28457 -0.00114372)
(0.0544637 0.814661 -0.00073817)
(-0.00214192 1.30069 -0.00115873)
(0.0569974 0.852741 -0.000773076)
(0.0552577 0.826591 -0.000748752)
(-0.00220951 1.33627 -0.00119344)
(-0.0606015 1.49746 -0.00132412)
(1.3504 0.894058 -0.000979309)
(-0.0620978 1.53423 -0.00136073)
(0.0748947 0.29337 -0.000335704)
(0.0751541 0.294247 -0.000335937)
(0.0553215 0.202052 -0.00024797)
(0.0555773 0.203128 -0.000251895)
(0.0750471 0.294149 -0.000336371)
(0.240594 1.13399 -0.0011372)
(0.404616 1.9799 -0.00197355)
(0.225867 1.01851 -0.00103958)
(0.174857 0.756304 -0.000802655)
(0.175871 0.760863 -0.000804766)
(0.233057 1.05152 -0.00107233)
(0.412857 2.02059 -0.00198323)
(0.252322 1.18978 -0.00118809)
(0.0765908 0.29963 -0.00033508)
(0.0761817 0.298078 -0.000335435)
(0.0751732 0.294273 -0.000335266)
(0.0553834 0.202231 -0.000246781)
(0.0569005 0.207639 -0.000246539)
(0.263788 1.75709 -0.00165672)
(0.421063 2.62624 -0.00249228)
(0.277079 1.63711 -0.00155753)
(0.283662 1.67615 -0.00159301)
(0.451621 2.81731 -0.00264841)
(0.441825 2.75614 -0.00259743)
(0.270441 1.80154 -0.00168607)
(-2.91408e-05 -0.00290283 3.33251e-05)
(-0.024884 -0.147022 0.0001684)
(0.0551004 0.269485 -0.000183229)
(0.00764187 0.037917 8.68442e-07)
(-0.0273502 -0.161288 0.00018408)
(-0.00769726 -0.0445887 7.90357e-05)
(-0.0649319 -0.430944 0.000449367)
(-0.0525159 -0.326761 0.000350145)
(-0.0653596 -0.474876 0.000471979)
(-0.050706 -0.315576 0.000334064)
(-0.0608748 -0.404121 0.000411555)
(0.462962 2.88826 -0.00271027)
(0.472467 2.94773 -0.00276091)
(0.294225 1.96053 -0.00182334)
(0.288138 1.91984 -0.00178713)
(-0.0196337 -0.109639 0.000158211)
(-0.0369689 -0.216989 0.000249996)
(0.0484002 0.236187 -0.000145781)
(0.00430865 0.0202859 2.0341e-05)
(0.0421501 0.205109 -0.000111619)
(-0.0345364 -0.202874 0.000231852)
(-0.010748 -0.0611763 9.7661e-05)
(0.0291387 0.105222 -0.000134247)
(0.0295281 0.106716 -0.000137803)
(0.0291516 0.105239 -0.000133326)
(0.0300623 0.108447 -0.000132814)
(0.121762 0.356496 -0.000267998)
(0.147855 0.433102 -0.000360277)
(0.196705 0.456266 -0.000416628)
(0.191429 0.444018 -0.000403179)
(0.163843 0.379981 -0.000333216)
(0.172083 0.399118 -0.000357984)
(0.154885 0.453748 -0.000384685)
(-0.612162 1.99398 -0.00167112)
(1.32719 0.878645 -0.000949452)
(-0.056275 1.39111 -0.00122658)
(-0.169408 1.57627 -0.00137508)
(-0.584602 1.90439 -0.00165728)
(-0.514028 1.67388 -0.00130556)
(-0.532391 1.73404 -0.00145827)
(-0.146634 1.36509 -0.00118592)
(-0.0504602 1.24816 -0.00109475)
(1.31079 0.867748 -0.000911113)
(-0.567285 1.84812 -0.00155387)
(0.0873557 0.318566 -0.000278121)
(0.080359 0.293029 -0.000272684)
(0.143826 0.135497 -0.000144873)
(0.400161 -0.166154 0.000108865)
(0.384309 -0.159569 0.000103128)
(0.1579 0.148768 -0.0001531)
(0.0540509 0.189031 -0.00015391)
(0.0503909 0.181688 -0.000156155)
(0.0458096 0.165144 -0.000152344)
(0.0404442 0.141354 -0.000134205)
(0.189393 0.178455 -0.000176393)
(0.418404 -0.173719 0.00010465)
(0.436814 -0.181326 0.000101532)
(0.173941 0.163893 -0.000162839)
(0.620239 3.04237 -0.00164583)
(0.203403 0.882974 -0.000472401)
(0.229007 0.99401 -0.000530485)
(0.644354 3.16091 -0.00179887)
(0.227474 0.986959 -0.000867326)
(0.667977 3.27586 -0.00269128)
(0.237882 1.03219 -0.000840643)
(0.641268 3.14452 -0.00272679)
(0.231224 1.003 -0.0009495)
(0.633839 3.10781 -0.00278765)
(0.213943 0.928264 -0.000850663)
(0.681632 3.34178 -0.00305171)
(-0.0649583 -0.525668 0.000251596)
(-0.0327334 -0.240098 0.000123606)
(-0.0463942 -0.33823 0.000322384)
(-0.0592181 -0.430627 0.000419594)
(-0.0969114 -0.779651 0.000748731)
(-0.0520264 -0.512024 0.00038188)