/*--------------------------------*- C++ -*----------------------------------*\
| =========                 |                                                 |
| \\      /  F ield         | OpenFOAM: The Open Source CFD Toolbox           |
|  \\    /   O peration     | Version:  2306                                  |
|   \\  /    A nd           | Website:  www.openfoam.com                      |
|    \\/     M anipulation  |                                                 |
\*---------------------------------------------------------------------------*/
FoamFile
{
    version     2.0;
    format      ascii;
    arch        "LSB;label=32;scalar=64";
    class       volScalarField;
    location    "1.8";
    object      p;
}
// * * * * * * * * * * * * * * * * * * * * * * * * * * * * * * * * * * * * * //

dimensions      [0 2 -2 0 0 0 0];

internalField   nonuniform List<scalar> 
111542
(
61.2799
62.5636
65.6467
70.7092
77.8333
87.2337
99.0777
113.412
129.769
146.763
161.872
171.109
170.393
158.399
138.027
114.913
93.0922
74.1989
58.4909
45.8584
35.897
28.2498
22.5102
18.1669
14.8821
12.371
10.346
8.76952
7.58882
6.67499
5.94451
5.3413
4.87811
4.48509
4.1111
3.71453
3.24213
2.68891
1.95371
0.944645
60.1457
61.3878
64.4382
69.4411
76.5592
86.1113
98.4763
113.921
132.305
152.594
172.153
185.432
184.801
168.808
143.051
116.092
92.2009
72.2371
56.0957
43.4226
33.7058
26.3727
20.8907
16.8779
13.8817
11.5593
9.73418
8.32122
7.23132
6.37093
5.67614
5.10756
4.64137
4.23823
3.8589
3.46599
3.01608
2.46429
1.74009
0.786916
57.9011
59.0751
61.9843
66.8083
73.8192
83.5277
96.6526
114.017
136.31
163.41
192.042
213.695
214.064
188.904
152.702
119.156
91.3583
69.2512
52.2292
39.424
29.969
23.2637
18.4739
15.0016
12.1895
9.89743
8.15786
6.8834
5.93488
5.21051
4.65021
4.21329
3.86577
3.57559
3.30827
3.02797
2.69007
2.23808
1.5965
0.683165
54.6094
55.6571
58.2758
62.6916
69.2875
78.7903
92.3557
111.7
139.259
178.33
213.517
256.566
262.677
222.115
169.754
128.675
95.0301
69.4485
50.7931
37.3042
23.5515
17.2157
14.7426
13.3442
11.3764
9.33124
7.69572
6.46075
5.49155
4.71184
4.08759
3.59032
3.19179
2.86298
2.57586
2.29929
1.98797
1.57881
0.974287
0.0458971
50.396
51.238
53.3654
57.0203
62.6386
71.0632
83.7437
103.119
133.251
178.125
255.39
342.294
366.997
259.525
174.317
124.367
84.0763
56.9759
39.2606
27.9255
20.3882
5.80577
5.28198
6.04505
5.48336
4.68271
4.10173
3.66289
3.28352
2.95521
2.6829
2.46038
2.27863
2.12482
1.98806
1.85209
1.68513
1.43074
0.965053
-0.0163903
45.4737
46.0231
47.4359
49.913
53.827
59.9095
69.4929
85.0418
111.35
166.159
260.211
456.196
623.083
251.396
176.72
115.58
67.3746
40.6866
25.1627
15.8427
11.9651
11.9757
11.7731
7.62987
4.67318
3.25559
2.50201
1.95351
1.52099
1.20031
0.972255
0.810314
0.695556
0.615982
0.562474
0.525226
0.491543
0.44921
0.406166
0.499748
40.1531
40.3391
40.8522
41.7923
43.3379
45.8254
49.8406
56.3739
67.129
106.556
182.471
413.342
1956.43
-413.717
206.635
77.4298
30.5392
15.4075
7.25318
-1.92846
-8.32343
16.0457
15.2796
9.53582
6.04721
4.59908
3.878
3.33878
2.9063
2.58154
2.34026
2.15229
2.0002
1.87376
1.76767
1.67784
1.59192
1.5022
1.40157
1.31266
34.8248
34.6201
34.154
33.3997
32.2874
30.6439
28.0673
23.6106
14.8731
17.0611
-0.112962
-162.964
-1007.37
-1050.36
-312.654
-101.965
-47.1896
-26.7835
-17.4201
-10.8366
-3.22859
-7.74339
-6.00902
-4.45982
-3.53608
-2.57415
-1.65277
-0.922766
-0.373184
0.0551139
0.398575
0.67496
0.89743
1.07592
1.21688
1.32062
1.37255
1.34054
1.15541
0.685172
29.9096
29.352
27.9646
25.6228
22.0616
16.7254
8.59363
-4.23085
-25.3861
-48.6986
-122.504
-267.702
-478.736
-507.44
-321.395
-176.278
-101.551
-62.0666
-39.8565
-25.6992
-15.4653
-8.57548
-4.49233
-1.58669
0.182662
1.28311
2.04879
2.57857
2.9208
3.13022
3.25082
3.30947
3.32155
3.29525
3.23157
3.12422
2.94944
2.65708
2.14849
1.22521
25.8364
24.9721
22.8331
19.2226
13.765
5.73862
-6.06075
-23.6072
-50.1924
-91.4421
-149.345
-222.437
-288.315
-296.903
-239.573
-166.551
-111.13
-75.3788
-52.1046
-35.9433
-24.4548
-16.7691
-11.6297
-7.98105
-5.39319
-3.54696
-2.16745
-1.10779
-0.295505
0.325546
0.803825
1.17466
1.45991
1.6713
1.80972
1.86927
1.82635
1.63645
1.23559
0.570632
22.9226
21.8477
19.1928
14.7315
8.04788
-1.57463
-15.238
-34.4377
-61.0527
-96.9798
-142.256
-191.748
-230.759
-238.333
-208.251
-159.566
-115.069
-82.4068
-59.3723
-42.5581
-30.0454
-20.8675
-14.1403
-9.21367
-5.62041
-3.01159
-1.1079
0.287704
1.30468
2.03612
2.55425
2.91263
3.14721
3.27834
3.30594
3.24074
3.05836
2.71016
2.11993
1.15119
21.4041
20.2343
17.3048
12.4415
5.15513
-5.17435
-19.563
-39.1598
-65.1398
-97.8995
-136.007
-174.124
-202.292
-208.846
-189.488
-153.668
-116.136
-85.4875
-62.6103
-45.5029
-32.5684
-22.893
-15.7868
-10.6184
-6.90913
-4.23377
-2.28957
-0.866612
0.178736
0.946259
1.50848
1.91739
2.20902
2.40837
2.46206
2.44541
2.31576
2.02065
1.50654
0.715432
60.793
62.0177
65.0237
69.9195
76.7995
85.8671
97.3189
111.156
126.914
143.306
157.896
166.814
166.051
154.414
134.651
112.165
90.9261
72.488
57.1553
44.8139
35.1301
27.6813
22.0385
17.7921
14.5671
12.0589
10.0742
8.52893
7.34631
6.43231
5.7131
5.1393
4.68058
4.2933
3.93558
3.56761
3.14539
2.6212
1.91592
0.931859
59.6677
60.863
63.8153
68.6523
75.529
84.7528
96.6937
111.603
129.348
148.956
167.888
180.835
180.061
164.494
139.482
113.286
90.0187
70.5356
54.7881
42.4459
33.005
25.8503
20.4704
16.5218
13.5625
11.2561
9.4463
8.04521
6.9619
6.11058
5.43029
4.88068
4.43092
4.04631
3.69226
3.3322
2.92433
2.4152
1.73405
0.805678
57.4449
58.5725
61.3803
66.0399
72.8095
82.1817
94.8537
111.628
133.185
159.429
187.184
208.185
208.659
184.148
148.947
116.344
89.2265
67.6166
51.0109
38.58
29.483
22.9437
18.1759
14.683
11.8663
9.58922
7.87197
6.6206
5.6932
4.98761
4.44469
4.02436
3.69347
3.42114
3.17712
2.92767
2.63135
2.22888
1.63561
0.736288
54.1866
55.1889
57.7102
61.9681
68.3293
77.4968
90.5961
109.307
136.027
174.025
209.689
251.986
257.925
217.742
166.52
126.37
93.295
68.0993
49.7759
36.6043
23.1202
17.0958
14.4978
12.8983
10.8171
8.75044
7.14454
5.96009
5.04709
4.32283
3.7506
3.30039
2.94526
2.65798
2.41407
2.18627
1.93537
1.59755
1.06398
0.151662
50.0192
50.819
52.8594
56.3737
61.7804
69.8974
82.1404
100.906
130.206
175.093
251.313
337.227
361.198
254.017
170.834
122.409
82.6535
55.8408
38.394
27.3345
20.1755
6.01784
5.22616
5.73002
5.06145
4.24117
3.6747
3.25703
2.89552
2.58052
2.31871
2.10602
1.93715
1.80245
1.6935
1.59953
1.49622
1.32907
0.96364
0.0283332
45.1552
45.6672
47.0105
49.3773
53.1258
58.968
68.2107
83.2869
108.965
163.661
257.426
452.362
617.882
244.851
172.151
114.745
66.8267
40.3005
24.891
15.6419
11.2804
10.4859
10.2073
6.2135
3.52399
2.37428
1.83954
1.45728
1.14644
0.911456
0.741844
0.618686
0.531501
0.473946
0.443938
0.440248
0.462024
0.509775
0.594838
0.794367
39.8998
40.0577
40.5248
41.3956
42.8424
45.1953
49.0375
55.3709
65.9502
105.305
181.252
412.95
1945.79
182.195
78.8407
30.0134
14.515
6.45177
-2.69103
-8.90168
14.187
13.7132
8.32206
5.12447
3.89212
3.30172
2.82925
2.42335
2.09883
1.84084
1.62753
1.44967
1.3028
1.18841
1.10911
1.06591
1.06281
1.11081
1.25409
34.6223
34.4183
33.9325
33.1535
32.017
30.3582
27.7971
23.4413
14.9999
17.3235
0.797257
-158.949
-987.485
-1034.18
-307.3
-100.48
-46.6252
-26.7901
-17.7535
-11.3707
-3.97708
-8.70051
-6.82405
-5.13774
-4.04492
-2.95079
-1.95916
-1.19812
-0.635162
-0.202327
0.14061
0.414815
0.636617
0.818013
0.969615
1.09714
1.19439
1.23571
1.1528
0.777276
29.7816
29.2207
27.8355
25.5136
21.9968
16.7485
8.78545
-3.72479
-24.3076
-47.4526
-119.625
-262.376
-470.394
-496.781
-315.555
-173.041
-99.6349
-61.0343
-39.4199
-25.6724
-15.7221
-9.22488
-5.23197
-2.28358
-0.409228
0.780517
1.60002
2.15783
2.51199
2.72226
2.8364
2.88512
2.88731
2.85471
2.79253
2.69943
2.55714
2.32075
1.89632
1.09188
25.7542
24.8939
22.7857
19.2293
13.8667
6.00329
-5.5264
-22.6326
-48.5059
-88.623
-144.948
-216.204
-280.782
-289.107
-233.26
-162.261
-108.472
-73.837
-51.3022
-35.6571
-24.5363
-17.1082
-12.0644
-8.41434
-5.8009
-3.93029
-2.53067
-1.45614
-0.634862
-0.00982777
0.46948
0.840177
1.12597
1.34032
1.48751
1.5639
1.54956
1.4037
1.06675
0.490709
22.8757
21.8172
19.2023
14.8128
8.26287
-1.15223
-14.4935
-33.2058
-59.102
-94.0307
-138.048
-186.2
-224.292
-231.911
-202.736
-155.537
-112.386
-80.722
-58.3805
-42.0604
-29.906
-20.9775
-14.3939
-9.54749
-5.99706
-3.40791
-1.50947
-0.112621
0.906534
1.6389
2.15668
2.51391
2.74731
2.87921
2.91787
2.86594
2.70502
2.39344
1.86413
1.00541
21.3772
20.2168
17.3475
12.5472
5.4281
-4.68021
-18.7274
-37.8336
-63.0922
-94.9665
-132.04
-169.155
-196.673
-203.289
-184.67
-149.868
-113.426
-83.7082
-61.5054
-44.8888
-32.3066
-22.8821
-15.9445
-10.8951
-7.23681
-4.58369
-2.64903
-1.22801
-0.180956
0.589244
1.15386
1.56428
1.85512
2.04534
2.13393
2.13146
2.01753
1.75284
1.29348
0.610757
59.8292
60.9653
63.778
68.352
74.7699
83.2159
93.8701
106.715
121.317
136.494
149.976
158.176
157.39
146.423
127.805
106.576
86.4545
68.9231
54.3281
42.5854
33.3766
26.2603
20.8298
16.7442
13.6532
11.255
9.36926
7.89905
6.76583
5.8909
5.20731
4.66556
4.22828
3.86155
3.53086
3.19922
2.82521
2.35717
1.72589
0.838511
58.7256
59.8322
62.5867
67.1008
73.511
82.0968
93.1972
107.039
123.5
141.686
159.275
171.204
170.506
155.853
132.3
107.592
85.5403
67.0053
52.0281
40.3152
31.3583
24.4903
19.2952
15.5189
12.7183
10.5308
8.79908
7.44385
6.38627
5.55276
4.8885
4.35392
3.91705
3.54819
3.21768
2.89284
2.53498
2.0927
1.49961
0.68463
56.5467
57.5848
60.1952
64.5341
70.8328
79.5442
91.3155
106.898
126.939
151.385
177.29
197.12
197.45
174.3
141.198
110.479
84.7123
64.1042
48.3197
36.5805
28.0693
21.7499
17.0657
13.7088
11.0658
8.92796
7.29372
6.08646
5.18375
4.49406
3.96306
3.55337
3.23306
2.975
2.75325
2.54052
2.30096
1.98061
1.49366
0.705773
53.3544
54.2709
56.604
60.5542
66.4551
74.9587
87.1192
104.524
129.463
165.109
200.267
240.719
246.312
207.547
158.872
120.891
89.1332
64.8607
47.2958
34.7619
21.5455
15.9202
13.591
12.0723
9.96741
7.83665
6.15333
4.89772
3.93236
3.17819
2.59485
2.1487
1.8094
1.54981
1.3491
1.18693
1.03436
0.839071
0.502553
-0.145837
49.2792
50.0014
51.8742
55.1136
60.1038
67.6073
78.9595
96.4424
123.928
167.665
240.992
324.27
347.095
241.848
163.162
117.77
79.093
52.9443
36.0784
25.4911
18.9156
3.98005
4.15753
5.1749
4.52713
3.56387
2.84969
2.31338
1.86504
1.49282
1.19736
0.970278
0.804235
0.688507
0.619663
0.595379
0.609686
0.631169
0.549928
-0.0173394
44.5253
44.9787
46.1888
48.3387
51.7597
57.1192
65.6604
79.7206
103.965
157.379
249.344
441.24
602.665
229.401
166.02
112.818
64.8455
37.9218
22.5936
13.692
11.5605
8.25882
7.57449
3.17296
0.0533606
-1.43718
-2.14663
-2.56653
-2.82892
-2.96795
-3.01828
-3.01583
-2.9673
-2.8827
-2.75859
-2.58298
-2.33081
-1.95802
-1.36823
-0.269864
39.3995
39.5175
39.8982
40.6339
41.8842
43.9633
47.4358
53.3097
63.4088
102.115
177.633
409.495
1930.19
207.297
84.1043
31.2994
13.5992
5.01025
-4.31553
-10.6261
11.2657
10.6062
4.83864
1.55765
0.37125
-0.13716
-0.503986
-0.789283
-0.988625
-1.12127
-1.20932
-1.26263
-1.27695
-1.24522
-1.15213
-0.971664
-0.665703
-0.16477
0.642214
34.263
34.0349
33.5144
32.6908
31.5053
29.8083
27.2623
23.0759
15.1832
17.9168
3.21904
-149.734
-963.782
-1007.17
-296.57
-95.0968
-44.2042
-26.0797
-18.033
-12.344
-5.79581
-8.98136
-7.91272
-6.88465
-5.93886
-4.80075
-3.73086
-2.88024
-2.2233
-1.70191
-1.2787
-0.93126
-0.642471
-0.395038
-0.166869
0.0583775
0.293982
0.534423
0.728196
0.676257
29.543
28.9782
27.6109
25.3304
21.8997
16.8212
9.18583
-2.70206
-22.1228
-44.2828
-112.702
-249.4
-450.287
-476.275
-301.494
-164.844
-95.1783
-58.8142
-38.5432
-25.6214
-16.1636
-10.0036
-6.34909
-3.61005
-1.82708
-0.671948
0.146726
0.72657
1.11661
1.3703
1.53403
1.63786
1.70125
1.73681
1.75667
1.76523
1.75463
1.69174
1.48942
0.942682
25.6175
24.7772
22.7225
19.2745
14.1005
6.55546
-4.44376
-20.6733
-45.1091
-82.8894
-135.949
-203.395
-265.024
-273.418
-220.815
-153.886
-103.335
-70.8427
-49.6827
-34.9741
-24.5227
-17.5933
-12.6318
-9.02576
-6.50978
-4.7205
-3.3531
-2.2748
-1.43127
-0.775054
-0.259271
0.150726
0.478809
0.737196
0.936595
1.07728
1.14623
1.10984
0.909291
0.472097
22.8104
21.7839
19.2526
15.0159
8.72014
-0.289994
-12.9978
-30.7442
-55.2129
-88.1402
-129.634
-175.157
-211.468
-219.102
-191.893
-147.558
-107.023
-77.2778
-56.2539
-40.8683
-29.392
-20.9274
-14.5762
-9.88744
-6.48213
-4.00696
-2.17919
-0.818646
0.186128
0.918555
1.44709
1.82345
2.0837
2.2499
2.33496
2.34018
2.25198
2.03596
1.62994
0.920138
21.3473
20.2269
17.4546
12.8267
5.99396
-3.67159
-17.0442
-35.1642
-59.0388
-89.1183
-124.101
-159.209
-185.424
-192.049
-174.846
-142.266
-108.045
-80.1016
-59.1775
-43.4834
-31.5759
-22.6272
-15.9905
-11.1241
-7.5864
-5.02252
-3.14968
-1.76397
-0.731811
0.0376601
0.611256
1.03793
1.35103
1.56951
1.70176
1.74651
1.69036
1.50328
1.14495
0.578667
58.4425
59.4587
61.9927
66.1141
71.8822
79.4468
88.953
100.367
113.284
126.653
138.462
145.537
144.672
134.676
117.766
98.4267
79.9757
63.8026
50.3049
39.4448
30.9197
24.2774
19.1219
15.1841
12.2047
9.91926
8.14249
6.76498
5.7053
4.88981
4.2552
3.75432
3.35225
3.02038
2.72984
2.44968
2.14455
1.76963
1.26769
0.572736
57.3706
58.3553
60.8299
64.888
70.6368
78.311
88.1968
100.478
115.031
131.063
146.558
156.841
156.182
142.943
121.654
99.2126
78.9959
61.8972
48.0785
37.299
29.0515
22.563
17.5175
13.8313
11.1478
9.09124
7.47579
6.21464
5.23387
4.46594
3.85896
3.37408
2.98264
2.65921
2.37974
2.11852
1.84386
1.51234
1.06702
0.451466
55.2586
56.171
58.5037
62.387
68.0127
75.77
86.2212
100.021
117.738
139.337
162.26
179.939
180.014
159.171
129.482
101.676
77.9966
58.9554
44.4355
33.7503
26.1564
19.9305
14.9188
11.4987
9.08841
7.24044
5.83244
4.78616
4.00229
3.40097
2.9347
2.574
2.29511
2.07642
1.90227
1.75479
1.60959
1.42298
1.11561
0.540096
52.1569
52.9587
55.0269
58.5377
63.7748
71.3065
82.0621
97.4525
119.531
151.202
184.661
221.704
226.71
190.862
146.702
112.059
82.3881
59.6802
43.3767
31.8728
19.5203
13.8112
10.6823
8.9321
7.16719
5.49303
4.17433
3.18258
2.41212
1.79975
1.3154
0.941638
0.657779
0.445221
0.299294
0.213823
0.17992
0.166982
0.0941234
-0.242817
48.2136
48.8353
50.472
53.3163
57.6995
64.2909
74.2789
89.7099
114.121
155.157
222.691
300.622
322.033
222.348
151.872
110.149
72.8525
47.875
32.0414
22.1077
15.1174
-2.3429
-1.07473
1.20121
1.38544
0.943233
0.556309
0.22183
-0.104966
-0.409039
-0.674066
-0.884273
-1.04212
-1.14571
-1.18088
-1.13152
-0.974872
-0.70062
-0.3695
-0.348688
43.6307
44.0028
45.0242
46.8594
49.7965
54.4253
61.8559
74.2107
95.8249
146.117
233.79
419.131
573.751
205.759
157.588
108.46
59.8531
33.1285
18.323
9.5696
2.90323
-4.28041
-0.889321
-1.18412
-2.32398
-2.9539
-3.27943
-3.56029
-3.82737
-4.0504
-4.21805
-4.34651
-4.41872
-4.43533
-4.37684
-4.20776
-3.86552
-3.23661
-2.11908
-0.186317
38.6941
38.7594
39.0171
39.5533
40.507
42.1545
45.0065
50.0145
58.974
95.7536
169.374
401.403
1893.36
202.71
89.6433
30.3552
10.961
1.86058
-8.24366
-15.8433
13.4289
11.188
4.31478
0.326439
-1.48622
-2.48669
-3.19493
-3.71369
-4.07621
-4.32365
-4.48369
-4.58046
-4.61935
-4.57306
-4.40942
-4.06529
-3.43338
-2.33491
-0.52597
33.7578
33.4996
32.9312
32.0414
30.7745
28.9937
26.41
22.3524
15.0604
18.0786
5.96731
-134.367
-908.833
-958.499
-273.638
-86.2429
-42.157
-26.6362
-19.6081
-14.2219
-5.64327
-7.94001
-7.09526
-6.48501
-5.83096
-4.96834
-4.13136
-3.46169
-2.95195
-2.55738
-2.24526
-1.98287
-1.77431
-1.59089
-1.39557
-1.15763
-0.838385
-0.399948
0.151722
0.585603
29.2184
28.6546
27.3111
25.0869
21.7698
16.9168
9.72279
-1.30697
-19.0657
-39.4987
-101.954
-228.116
-416.089
-440.736
-277.123
-151.74
-88.7242
-55.8977
-37.5526
-25.7787
-16.9882
-11.7721
-7.29352
-4.09513
-2.39597
-1.48331
-0.875196
-0.452801
-0.180557
-0.0124936
0.0933342
0.1634
0.209964
0.249111
0.298171
0.369678
0.470614
0.59229
0.672681
0.532257
25.4437
24.6314
22.6557
19.3609
14.451
7.35174
-2.89992
-17.8776
-40.2168
-74.4771
-122.502
-183.841
-240.355
-248.698
-201.564
-141.344
-95.887
-66.5554
-47.3473
-33.9807
-24.5443
-18.3638
-13.0576
-9.17051
-6.69126
-5.03793
-3.78465
-2.79119
-2.01504
-1.41274
-0.938616
-0.558472
-0.250988
-0.0005942
0.208301
0.380905
0.513463
0.585684
0.548442
0.328109
22.7414
21.7613
19.3487
15.3287
9.39025
0.951136
-10.8615
-27.2293
-49.6349
-79.6185
-117.314
-158.752
-192.115
-199.613
-175.472
-135.683
-99.1884
-72.2752
-53.134
-39.0763
-28.5836
-20.8
-14.7101
-10.1169
-6.81786
-4.46357
-2.74185
-1.46596
-0.527933
0.152884
0.643547
0.994881
1.24197
1.40775
1.50829
1.54766
1.51752
1.3933
1.12655
0.63882
21.3322
20.2676
17.6344
13.2542
6.82288
-2.21768
-14.6434
-31.3653
-53.2639
-80.7286
-112.604
-144.647
-168.777
-175.279
-160.185
-131.071
-100.242
-74.8948
-55.7949
-41.4053
-30.4565
-22.1858
-15.9539
-11.2775
-7.84219
-5.36267
-3.56383
-2.23702
-1.24967
-0.514281
0.0336889
0.442372
0.744848
0.96186
1.10469
1.17436
1.16104
1.04328
0.79165
0.393286
56.7222
57.5962
59.7924
63.3628
68.3383
74.8231
82.913
92.5445
103.34
114.386
123.992
129.551
128.455
119.645
104.952
88.0833
71.8213
57.4211
45.3293
35.5761
27.9215
21.969
17.3269
13.7197
10.9506
8.82138
7.17048
5.89205
4.90958
4.15882
3.57673
3.11957
2.75394
2.46026
2.21105
1.98001
1.73842
1.44882
1.06091
0.498026
55.6883
56.5303
58.666
62.1681
67.1072
73.6581
82.0326
92.3455
104.445
117.622
130.193
138.268
137.418
126.004
107.763
88.3706
70.6297
55.4556
43.1443
33.553
26.272
20.5829
16.1038
12.6804
10.1045
8.11453
6.55011
5.3284
4.38254
3.66003
3.09697
2.65105
2.30095
2.01895
1.78682
1.58346
1.38403
1.15506
0.84784
0.388591
53.6522
54.4255
56.4218
59.7476
64.5437
71.1131
79.8952
91.3906
106.01
123.661
142.245
156.429
156.03
138.427
113.486
89.7288
69.0425
52.2153
39.3859
30.0956
23.9315
18.7489
14.0172
10.5865
8.24096
6.50043
5.16379
4.1523
3.38673
2.79282
2.33621
1.9883
1.72626
1.52739
1.382
1.27987
1.20895
1.14116
1.00906
0.622354
50.6823
51.3433
53.0886
56.058
60.4694
66.7739
75.7136
88.4091
106.478
132.221
162.327
193.442
197.319
166.443
129.203
99.1941
72.7462
52.5394
38.1392
28.2979
19.3119
16.5766
11.3746
7.5951
5.08352
3.2582
1.93711
1.00102
0.342579
-0.137122
-0.490782
-0.745942
-0.922382
-1.04086
-1.09676
-1.07759
-0.968903
-0.76281
-0.487712
-0.331464
46.9031
47.4019
48.7503
51.1051
54.7255
60.1475
68.3247
80.9046
100.753
136.887
193.818
261.059
279.499
191.963
135.07
97.1875
62.7232
40.2518
26.4157
18.3919
15.638
7.71011
5.29255
3.71532
2.09228
0.685902
-0.374757
-1.20726
-1.85047
-2.34857
-2.73334
-3.00873
-3.18982
-3.29384
-3.30572
-3.18488
-2.8817
-2.31472
-1.42349
-0.499054
42.529
42.8021
43.5937
45.0379
47.3608
51.0314
56.9376
66.7983
84.1754
128.267
206.372
375.291
518.556
175.186
158.426
96.6924
48.918
24.253
11.3434
4.019
-3.76868
-31.508
-28.2886
-26.2589
-25.2047
-24.0106
-22.8398
-21.845
-21.0354
-20.3362
-19.7031
-19.1352
-18.5925
-18.0355
-17.4281
-16.7093
-15.7556
-14.3109
-11.8017
-6.78211
37.8306
37.8303
37.9379
38.2237
38.7927
39.8536
41.809
45.4268
52.2064
84.4977
151.453
372.127
1828.88
275.939
68.5531
13.6283
-3.18625
-10.0996
-15.5775
-20.4844
-3.42527
-5.47937
-10.0913
-12.4362
-13.2473
-13.5476
-13.6958
-13.7579
-13.7335
-13.6363
-13.4997
-13.2904
-13.0153
-12.6528
-12.1406
-11.3626
-10.0796
-7.8364
-3.90577
33.1338
32.8515
32.2251
31.2472
29.8619
27.9403
25.228
21.1601
14.2974
16.888
6.86063
-118.276
-828.863
-856.254
-236.422
-79.4361
-44.1971
-31.2149
-24.6612
-19.2545
-13.6417
-22.3667
-17.883
-13.8641
-11.6048
-10.0043
-8.75084
-7.82163
-7.15367
-6.66524
-6.29676
-5.99996
-5.75782
-5.53233
-5.27925
-4.94306
-4.44657
-3.66808
-2.46196
-0.821656
28.8279
28.2713
26.9555
24.7942
21.604
17.0052
10.3167
0.295162
-15.4473
-33.5187
-87.5542
-197.144
-362.116
-382.439
-240.349
-134.282
-81.1421
-52.8896
-36.8067
-26.6847
-20.6768
-19.1738
-12.7504
-7.67654
-5.15213
-3.84254
-2.97155
-2.36062
-1.95358
-1.68621
-1.50268
-1.36936
-1.26543
-1.16194
-1.03721
-0.866373
-0.619683
-0.268337
0.173711
0.505693
25.245
24.4679
22.5896
19.477
14.8832
8.31787
-1.02681
-14.4614
-34.1597
-63.8403
-104.974
-157.358
-205.713
-213.746
-175.034
-124.845
-86.4525
-61.1883
-44.369
-32.6734
-24.7116
-20.0277
-14.8018
-10.6017
-7.88205
-6.05493
-4.66388
-3.56515
-2.71301
-2.05788
-1.54881
-1.1456
-0.824364
-0.557904
-0.327465
-0.118196
0.0789849
0.260943
0.391466
0.361649
22.6779
21.7541
19.4857
15.727
10.2208
2.47469
-8.24339
-22.9111
-42.7344
-68.9444
-101.599
-137.336
-166.321
-173.389
-153.605
-120.244
-89.2134
-65.9126
-49.0755
-36.6273
-27.3781
-20.6029
-15.1631
-10.8235
-7.58505
-5.22964
-3.48671
-2.1806
-1.20806
-0.491473
0.0346937
0.420921
0.702874
0.907074
1.05145
1.14503
1.18659
1.15956
1.02045
0.667294
21.3379
20.3401
17.8742
13.7928
7.84631
-0.435162
-11.7009
-26.7019
-46.1424
-70.2977
-98.1421
-126.067
-147.238
-153.376
-141.001
-116.613
-90.293
-68.27
-51.4251
-38.6192
-28.8452
-21.4623
-15.8565
-11.525
-8.24334
-5.82163
-4.03428
-2.69469
-1.68183
-0.915649
-0.336168
0.102711
0.43415
0.680875
0.85639
0.965894
1.00422
0.954723
0.788724
0.46659
54.785
55.5071
57.3345
60.3001
64.4049
69.7021
76.2297
83.8855
92.308
100.721
107.777
111.536
110.024
102.472
90.3077
76.3243
62.6722
50.3965
39.9468
31.4044
24.5981
19.2486
15.0902
11.8823
9.41124
7.49182
5.99021
4.81931
3.91361
3.22692
2.69325
2.27767
1.92629
1.65508
1.43023
1.22694
1.02544
0.797581
0.51513
0.156645
53.7951
54.4849
56.2507
59.1417
63.1896
68.5002
75.1968
83.3042
92.6123
102.461
111.428
116.929
115.559
106.154
91.5257
75.8305
61.1716
48.3725
37.7974
29.3796
22.7707
17.6411
13.6726
10.6526
8.34756
6.545
5.11699
3.98723
3.08475
2.43904
1.93515
1.51761
1.20412
0.942416
0.735707
0.569387
0.418807
0.266214
0.0927076
-0.088143
51.8496
52.4723
54.1014
56.8127
60.6917
65.9399
72.8461
81.7094
92.7032
105.567
118.67
127.979
126.685
112.805
93.5548
75.0141
58.4683
44.5765
33.7075
25.4894
19.1276
14.5829
10.8788
8.0729
5.99758
4.40651
3.18473
2.27345
1.59292
1.02728
0.601717
0.297249
0.0830863
-0.0619171
-0.154974
-0.194988
-0.187621
-0.137287
-0.0665483
-0.0284898
49.0291
49.5392
50.9312
53.3025
56.7954
61.7216
68.5863
78.118
91.2835
109.24
133.809
155.758
157.482
133.663
105.17
81.5844
60.2124
43.5563
31.4811
22.9615
11.8832
9.07998
6.04774
3.43697
1.39887
-0.205521
-1.44684
-2.38057
-3.02176
-3.48366
-3.80733
-4.01645
-4.13435
-4.18401
-4.16164
-4.04255
-3.80505
-3.40096
-2.75526
-1.70456
45.423
45.8021
46.8367
48.6489
51.4146
55.5074
61.5747
70.7076
84.7297
113.286
153.275
200.319
210.494
143.033
103.289
74.4406
47.0181
28.9792
17.8076
11.4176
9.77793
-2.46766
-3.93067
-5.01553
-6.34219
-7.42894
-8.19731
-8.90315
-9.31193
-9.54488
-9.66818
-9.71516
-9.65648
-9.50107
-9.29126
-8.94545
-8.39219
-7.49029
-6.00474
-3.59139
41.2964
41.4632
42.0049
43.0152
44.6446
47.208
51.2972
58.0268
69.6446
103.301
162.349
290.176
397.515
106.583
118.586
59.4922
20.5373
1.39409
-8.12163
-12.531
-9.6556
-23.3344
-25.8184
-30.3522
-31.9272
-31.9409
-31.4787
-30.7193
-29.9982
-29.2644
-28.5048
-27.7047
-26.9163
-26.1239
-25.2338
-24.1929
-22.8592
-20.8867
-17.462
-10.5607
36.8827
36.7955
36.7397
36.7475
36.8755
37.245
38.0922
39.8583
43.3856
67.4556
118.247
300.198
1650.36
261.291
-18.3758
-61.8775
-70.0616
-70.8075
-69.1512
-64.2447
-36.5492
-35.3908
-37.4994
-37.6998
-36.734
-35.552
-34.3943
-33.3139
-32.2792
-31.2724
-30.3098
-29.3588
-28.3733
-27.3574
-26.2154
-24.7881
-22.6981
-19.0705
-11.6309
32.4301
32.1347
31.4451
30.365
28.8365
26.7305
23.8052
19.5712
12.8962
13.952
5.0603
-92.3326
-657.499
-650.122
-192.094
-82.9152
-56.562
-44.7252
-37.8083
-32.0423
-29.0608
-31.3821
-26.8443
-22.7274
-20.2864
-18.4814
-17.0547
-15.9558
-15.1057
-14.4291
-13.8692
-13.3897
-12.9749
-12.5434
-12.0783
-11.521
-10.7647
-9.61531
-7.71004
-4.30491
28.4013
27.8597
26.5701
24.4728
21.4151
17.0811
10.9219
1.98654
-11.3903
-26.7098
-69.6612
-153.135
-277.266
-294.12
-191.171
-113.094
-72.1748
-49.1044
-35.3314
-26.6554
-23.8722
-18.6805
-14.8416
-11.7365
-9.85233
-8.59523
-7.62728
-6.86305
-6.26164
-5.78257
-5.39018
-5.05789
-4.77196
-4.49963
-4.21695
-3.89377
-3.48357
-2.91942
-2.1089
-0.933853
25.0391
24.3015
22.5294
19.6137
15.3612
9.37866
1.02951
-10.6843
-27.3605
-51.68
-84.4405
-124.953
-161.642
-169.236
-141.766
-104.427
-74.5226
-53.8507
-39.5003
-29.2561
-22.1126
-18.1184
-14.503
-11.4461
-9.15094
-7.43086
-6.08261
-5.00935
-4.15999
-3.48835
-2.95243
-2.51731
-2.16037
-1.85364
-1.5771
-1.31294
-1.04656
-0.765292
-0.464922
-0.142157
22.6288
21.7674
19.6565
16.1834
11.1499
4.16476
-5.34606
-18.1247
-35.0392
-56.9065
-83.5889
-112.301
-135.598
-141.763
-127.314
-101.988
-77.4179
-58.2318
-43.904
-33.0844
-24.9251
-18.9645
-14.3834
-10.7693
-8.01124
-5.94979
-4.3977
-3.2169
-2.31615
-1.62893
-1.1022
-0.695771
-0.380254
-0.133136
0.061147
0.211404
0.318126
0.372554
0.355294
0.24765
21.3692
20.4437
18.1623
14.4084
8.99303
1.54583
-8.44086
-21.5342
-38.2266
-58.6299
-81.8124
-104.835
-122.309
-127.789
-118.669
-99.5936
-78.5333
-60.3216
-45.9751
-34.8449
-26.2363
-19.6943
-14.7694
-11.0158
-8.16277
-6.01463
-4.39556
-3.16431
-2.22186
-1.49883
-0.943217
-0.514559
-0.183289
0.0708225
0.260581
0.391901
0.460737
0.454579
0.35987
0.192702
52.7666
53.3376
54.7968
57.1559
60.3886
64.5003
69.4739
75.1735
81.2582
87.0876
91.646
93.585
91.6019
85.2517
75.5714
64.4773
53.5037
43.4583
34.7346
27.4638
21.5703
16.8866
13.2467
10.49
8.38541
6.73671
5.4347
4.4169
3.63114
3.03028
2.56517
2.20145
1.91195
1.68146
1.48852
1.31233
1.12996
0.91395
0.630151
0.237395
51.8231
52.3624
53.7602
56.0389
59.1945
63.2672
68.2946
74.2178
80.7784
87.3821
92.9227
95.6212
93.4873
85.9401
74.9078
63.0164
51.6579
41.4433
32.7512
25.6449
19.932
15.3941
11.9138
9.38477
7.49312
6.01062
4.83677
3.91286
3.18735
2.62718
2.18508
1.83071
1.55066
1.32393
1.13828
0.98032
0.830951
0.666892
0.455803
0.156405
49.9721
50.4476
51.7139
53.8099
56.7715
60.7012
65.7398
71.99
79.3989
87.5616
95.3037
99.8792
97.0821
86.2234
72.3593
59.1831
47.1251
36.5023
27.771
20.8448
15.3103
11.0353
8.38656
6.52977
4.97086
3.70163
2.74781
2.05577
1.55316
1.17906
0.908155
0.717394
0.587525
0.502122
0.452117
0.435495
0.44678
0.47052
0.464585
0.304575
47.2918
47.6684
48.7145
50.4899
53.0652
56.6157
61.4105
67.7887
76.095
86.53
97.6393
106.323
101.796
83.91
66.6955
52.8799
40.2651
29.7295
21.6052
15.1353
8.72852
2.50143
2.54829
2.9055
2.25889
1.326
0.514732
-0.131456
-0.630484
-1.01668
-1.30656
-1.51255
-1.64536
-1.71643
-1.72342
-1.65115
-1.48451
-1.20245
-0.803038
-0.36805
43.908
44.1516
44.8742
46.151
48.0608
50.8243
54.7787
60.4334
68.4644
87.8317
107.969
128.819
124.952
85.4573
62.898
48.4497
31.6271
19.3159
11.3641
6.05774
0.833017
-13.1169
-10.7698
-7.91969
-6.66204
-6.05805
-5.66358
-5.41215
-5.23234
-5.10299
-5.00594
-4.92048
-4.82838
-4.71852
-4.56051
-4.30806
-3.90206
-3.24944
-2.26361
-1.04483
40.0206
40.0884
40.3817
40.9601
41.8958
43.351
45.6135
49.1607
54.7848
75.4834
101.593
146.636
168.395
28.9415
24.8088
6.37659
-4.41256
-9.13498
-12.1617
-14.2002
-19.9108
-12.0489
-14.1075
-16.4397
-17.2251
-17.3352
-17.237
-17.0258
-16.7622
-16.4486
-16.0857
-15.663
-15.2133
-14.7382
-14.181
-13.4895
-12.5615
-11.1739
-8.90443
-5.06303
35.8741
35.7367
35.5206
35.2502
34.9364
34.6105
34.328
34.1605
34.1551
47.5421
58.7573
128.632
168.036
-714.603
-138.05
-95.7341
-68.5253
-60.9754
-55.53
-51.9873
-68.5561
-39.9219
-37.8583
-35.9475
-34.0946
-32.229
-30.5529
-29.096
-27.8206
-26.679
-25.6373
-24.676
-23.7755
-22.8793
-21.9539
-20.9348
-19.7044
-17.9795
-15.1373
-9.58197
31.7503
31.409
30.6556
29.4745
27.8035
25.5076
22.3415
17.8442
11.0839
9.69081
-11.3704
-79.3688
-302.913
-257.266
-111.021
-63.0854
-40.682
-29.5536
-23.2032
-18.3094
-10.1428
5.07168
2.09664
-1.65753
-3.31785
-4.10284
-4.60956
-4.96431
-5.20174
-5.35135
-5.43637
-5.47809
-5.47097
-5.39076
-5.2222
-4.94183
-4.4825
-3.71854
-2.48689
-0.824494
27.9811
27.4459
26.1881
24.1572
21.2333
17.161
11.5036
3.50978
-8.21559
-26.4764
-49.6562
-103.188
-174.179
-188.276
-132.857
-85.9597
-57.9143
-40.2146
-28.8741
-20.8018
-10.4705
-1.35939
-2.39329
-3.92422
-4.02338
-3.6221
-3.21104
-2.85362
-2.53984
-2.26909
-2.03901
-1.84027
-1.66631
-1.50485
-1.3261
-1.10923
-0.829329
-0.4521
0.0171468
0.406036
24.8476
24.1536
22.4855
19.7697
15.8627
10.4658
3.11265
-6.89387
-20.5545
-39.1467
-63.4162
-91.5659
-116.206
-122.687
-106.8
-82.4111
-61.0337
-45.1062
-33.381
-24.3361
-16.7794
-11.7022
-8.90136
-6.88887
-5.09034
-3.61299
-2.50283
-1.68215
-1.0687
-0.608151
-0.26164
0.00209513
0.204072
0.365629
0.508505
0.64353
0.774797
0.893194
0.947952
0.775258
22.6027
21.8048
19.8534
16.6706
12.116
5.89796
-2.39956
-13.2842
-27.2795
-44.7195
-65.2036
-86.6921
-103.753
-109.096
-100.158
-82.8136
-64.8425
-49.8783
-38.1358
-28.88
-21.5032
-15.8111
-11.4751
-8.293
-5.9163
-4.11496
-2.75346
-1.72331
-0.93893
-0.338808
0.120781
0.472687
0.741163
0.944643
1.09586
1.20069
1.25425
1.23577
1.09589
0.729218
21.4285
20.5767
18.4838
15.0636
10.1872
3.5816
-5.12009
-16.2993
-30.2322
-46.8466
-65.275
-83.2627
-96.8418
-101.554
-95.5982
-81.965
-66.1074
-51.7316
-39.9409
-30.4952
-22.967
-17.0673
-12.5571
-9.17506
-6.61403
-4.64073
-3.11685
-1.94567
-1.04808
-0.360851
0.164039
0.562864
0.863049
1.08375
1.23657
1.32602
1.34467
1.27176
1.06665
0.660906
50.8073
51.2398
52.3588
54.1603
56.5941
59.6285
63.2063
67.1748
71.2304
74.8712
77.3773
77.8771
75.6047
70.3737
62.8788
54.3327
45.7502
37.7334
30.6239
24.5888
19.6365
15.682
12.6062
10.2532
8.42146
6.95692
5.7809
4.84641
4.1107
3.53251
3.07518
2.70884
2.40965
2.15774
1.93413
1.71872
1.48646
1.20666
0.84069
0.341057
49.9103
50.3126
51.3705
53.0898
55.431
58.3853
61.9259
65.9412
70.1647
74.1034
76.9686
77.6796
75.1898
69.3271
61.2411
52.4447
43.8298
35.856
28.873
23.0427
18.322
14.6017
11.7831
9.66583
8.00596
6.66329
5.57876
4.70835
4.00851
3.44349
2.98518
2.60961
2.29839
2.03475
1.80293
1.58755
1.3667
1.11016
0.775651
0.310388
48.1542
48.4965
49.4263
50.9652
53.0961
55.8466
59.2461
63.2637
67.72
72.1668
75.7037
76.7804
73.5371
65.993
56.7647
47.8246
39.3922
31.5815
24.8446
19.3563
15.0079
11.7515
9.5994
7.93261
6.44446
5.18313
4.19723
3.44924
2.88004
2.44248
2.10493
1.84536
1.64647
1.49322
1.3732
1.27611
1.18589
1.07278
0.877135
0.472857
45.62
45.8729
46.6003
47.8339
49.5886
51.9251
54.9385
58.7036
63.1921
68.1003
72.5092
74.1457
69.3403