/*--------------------------------*- C++ -*----------------------------------*\
| =========                 |                                                 |
| \\      /  F ield         | OpenFOAM: The Open Source CFD Toolbox           |
|  \\    /   O peration     | Version:  2306                                  |
|   \\  /    A nd           | Website:  www.openfoam.com                      |
|    \\/     M anipulation  |                                                 |
\*---------------------------------------------------------------------------*/
FoamFile
{
    version     2.0;
    format      ascii;
    arch        "LSB;label=32;scalar=64";
    class       surfaceScalarField;
    location    "1.8";
    object      phi;
}
// * * * * * * * * * * * * * * * * * * * * * * * * * * * * * * * * * * * * * //

dimensions      [0 3 -1 0 0 0 0];

oriented        oriented;

internalField   nonuniform List<scalar> 
338621
(
24.9951
0.0023434
0.00118492
24.9875
0.00503524
0.00249889
24.9754
0.0080352
0.00402666
24.9582
0.0112016
0.00590963
24.9349
0.0146456
0.00845865
24.9021
0.0207819
0.0118392
24.8554
0.0303976
0.0161706
24.7923
0.0411161
0.0217646
24.7302
0.0330335
0.0288546
24.6867
0.00593382
0.0373377
24.658
-0.018409
0.0470459
24.5836
0.0169533
0.0574088
24.6118
-0.0962511
0.068007
24.7423
-0.208365
0.0778865
24.7846
-0.128778
0.0864935
24.8175
-0.126643
0.0935744
24.8469
-0.128762
0.0992429
24.8705
-0.12776
0.103956
24.8902
-0.127536
0.107721
24.9168
-0.137429
0.11075
24.9464
-0.142603
0.112926
24.9688
-0.137045
0.114603
24.9858
-0.132982
0.115902
24.9998
-0.130731
0.116757
25.0117
-0.129277
0.117377
25.0218
-0.127958
0.11782
25.0308
-0.127077
0.118065
25.0387
-0.126067
0.118146
25.0456
-0.125086
0.118199
25.0518
-0.1244
0.118226
25.0573
-0.123777
0.11823
25.0624
-0.123251
0.118197
25.0669
-0.122772
0.118245
25.0709
-0.122362
0.118348
25.0745
-0.122058
0.118454
25.0781
-0.122177
0.118579
25.0817
-0.122227
0.118658
25.0853
-0.122397
0.118746
25.0893
-0.122728
0.118775
-0.123478
0.118461
24.9951
0.00467907
0.00116054
24.9874
0.0102098
0.00242071
24.9748
0.0165889
0.00393609
24.9575
0.0226378
0.00580578
24.9342
0.0294841
0.00833518
24.9046
0.038606
0.011612
24.8688
0.0500092
0.0159952
24.8229
0.0651525
0.0216834
24.7581
0.0687243
0.0289702
24.6829
0.0430212
0.0379198
24.6395
-0.0235187
0.0484933
24.6256
-0.0289446
0.0598073
24.6638
-0.206353
0.0719614
24.7481
-0.375581
0.0830481
24.8291
-0.302107
0.0923035
24.8983
-0.295573
0.0996676
24.9512
-0.287289
0.105469
24.9937
-0.280622
0.110165
25.0389
-0.286677
0.113906
25.0728
-0.288118
0.116718
25.0928
-0.281476
0.118793
25.1068
-0.271324
0.120274
25.1161
-0.263753
0.121466
25.1233
-0.260298
0.122315
25.1288
-0.25772
0.122944
25.1333
-0.255778
0.123369
25.1364
-0.253877
0.123687
25.1392
-0.252754
0.12389
25.1418
-0.251794
0.124049
25.1439
-0.250668
0.124185
25.1457
-0.249865
0.12431
25.1469
-0.248906
0.124435
25.1481
-0.248571
0.12459
25.1491
-0.248118
0.124761
25.15
-0.247857
0.12493
25.1507
-0.248089
0.125126
25.1516
-0.248346
0.125237
25.1528
-0.248883
0.125348
25.1546
-0.249917
0.125336
-0.250539
0.125013
24.9954
0.00668471
0.00110621
24.9878
0.015462
0.0023135
24.9759
0.0246991
0.00373507
24.9579
0.0349181
0.00560182
24.9335
0.0457036
0.00805251
24.9022
0.0584574
0.0112903
24.8622
0.0742114
0.0157184
24.8127
0.0928894
0.0215372
24.7433
0.108734
0.0292468
24.6446
0.102499
0.0391821
24.5668
0.00626449
0.0514321
-0.00506948
0.00599028
-0.0044905
24.6625
-0.0379048
0.0656855
-0.0576739
-0.0373948
-0.0572479
24.5545
-0.0105948
0.0791865
-0.0950167
0.0218383
-0.0935209
24.7277
-0.182149
0.0919113
-0.124122
-0.212029
-0.122199
24.8222
-0.129419
0.101474
-0.122198
-0.127045
-0.119423
24.8841
-0.11887
0.108685
-0.117038
-0.115943
-0.114426
24.9388
-0.115263
0.114298
-0.115599
-0.112924
-0.112722
25.0052
-0.118054
0.118826
-0.117128
-0.115726
-0.114964
25.0484
-0.114745
0.122369
-0.113443
-0.112636
-0.111536
25.0742
-0.111158
0.124825
-0.110175
-0.10917
-0.108248
25.0923
-0.425926
0.12639
25.1058
-0.412257
0.127443
25.1138
-0.400164
0.128417
25.1197
-0.395527
0.129275
25.1245
-0.39249
0.129984
25.1281
-0.389858
0.130512
25.1306
-0.387294
0.130913
25.1328
-0.38621
0.131246
25.1341
-0.384629
0.131547
25.1355
-0.383944
0.131845
25.1363
-0.382848
0.132148
25.1371
-0.382098
0.132461
25.1373
-0.381484
0.132729
25.1373
-0.381274
0.133085
25.1369
-0.380784
0.133339
25.1363
-0.381084
0.133593
25.136
-0.38173
0.133711
25.1359
-0.38254
0.133764
25.1359
-0.383609
0.133641
-0.384747
0.133202
24.9957
0.00896664
0.00102479
24.989
0.0199617
0.00215026
24.9772
0.0329052
0.00345497
24.9604
0.0464315
0.00523763
24.9359
0.0626334
0.00753742
24.9014
0.0821431
0.010661
24.8558
0.104786
0.0149697
24.7974
0.130404
0.0208001
24.7301
0.1471
0.0288074
6.14109
0.0380198
0.0397262
0.0553078
0.0388174
0.0549349
6.16308
6.14037
6.16106
6.12332
0.0182052
0.00583533
-6.11
6.09759
-0.0332348
0.00775292
-6.10131
6.12256
-0.0415594
0.00973568
-6.11477
6.14167
-0.220771
0.0117473
-6.1606
6.17512
-0.157128
0.013201
-6.18874
6.19976
-0.143998
0.0141077
-6.21139
6.22597
-0.144673
0.0148269
-6.23817
6.24557
-0.140873
0.0154159
-6.25153
6.25684
-0.135907
0.0158521
-6.26133
6.26537
-0.131368
0.0161695
25.1041
-0.144379
0.134556
-0.145198
-0.143624
-0.14534
-6.26898
-6.2737
-6.26938
-6.27393
25.1092
-0.552233
0.13487
25.111
-0.53754
0.135623
25.1127
-0.533704
0.136454
25.1126
-0.529641
0.13727
25.1112
-0.526449
0.13803
25.1098
-0.524666
0.138764
25.1075
-0.523457
0.139491
25.1047
-0.521999
0.140202
25.1013
-0.521409
0.140889
25.0975
-0.520604
0.141532
25.0931
-0.519768
0.142114
25.0878
-0.518855
0.142574
25.0822
-0.518681
0.143048
25.0762
-0.518067
0.143311
25.0695
-0.517912
0.143474
25.0627
-0.518244
0.143389
25.0557
-0.51865
0.143062
25.0498
-0.5202
0.142474
-0.52083
0.141486
24.9973
0.0095653
0.000914762
24.9914
0.0239013
0.0019233
24.9817
0.0395011
0.00308558
24.9663
0.0571021
0.00468395
24.9434
0.0786612
0.00674181
24.9101
0.105917
0.00954672
24.8601
0.141256
0.0134141
24.7857
0.185891
0.0188357
6.17118
0.236625
0.0263362
6.16387
6.17092
6.16385
6.15496
0.0502731
0.00396415
6.12901
0.00565024
-6.15725
0.0204554
0.012207
0.0119855
0.0206464
-0.0427102
-6.07585
6.0411
0.00778751
-0.00176618
0.00449526
0.00410678
-0.00159352
0.0217549
-6.04011
6.05803
0.0102029
0.029266
-0.0399851
-0.0401386
-0.0190011
0.0417972
-6.11027
6.1357
0.0129179
-0.0522792
-0.0669111
-0.104766
-0.0527363
0.238394
-6.16866
6.18129
0.0143219
-0.0512344
-0.0551001
-0.054402
-0.0516305
0.185429
-6.19357
6.20746
0.014976
-0.051447
-0.0507692
-0.0506219
-0.0515796
0.175536
-6.2214
6.23352
0.0154261
-0.0494726
-0.049562
-0.0493451
-0.0497225
0.170553
-6.24338
6.25082
0.0157489
-0.0466641
-0.0468527
-0.0464743
-0.0470732
0.163883
-6.25733
6.26201
0.0159754
-0.0440305
-0.0446439
-0.0441237
-0.0445841
0.156735
-6.26618
6.26842
0.0161348
-0.041789
-0.0427178
-0.0420961
-0.0424321
0.150678
-6.27164
6.27336
-0.16243
0.0163315
25.0507
-0.647251
0.129818
-6.27367
-6.26793
-6.27463
-6.26926
25.0241
-0.640212
0.129322
24.9957
-0.63392
0.128593
24.9674
-0.628969
0.127663
24.9406
-0.626498
0.126832
24.9151
-0.625336
0.126231
24.8905
-0.624737
0.125854
24.8674
-0.624575
0.12566
24.8449
-0.624446
0.125577
24.8232
-0.624449
0.125543
24.8023
-0.624418
0.125486
24.7823
-0.624138
0.125311
24.7624
-0.623876
0.125069
24.7434
-0.62366
0.124591
24.725
-0.623362
0.123867
24.7073
-0.623351
0.122803
24.691
-0.623662
0.121326
24.6762
-0.62486
0.119423
-0.627714
0.117051
24.9999
0.00817857
0.000777269
24.9966
0.0255549
0.00163756
24.9891
0.0443617
0.00263049
24.9773
0.0648853
0.0039113
24.9598
0.0905807
0.00561476
24.9327
0.12503
0.00787314
24.8897
0.173364
0.010921
24.8173
0.243009
0.015218
6.17084
0.350628
0.0210558
6.17039
6.17085
6.17023
-0.0663255
6.14513
0.0888651
0.0031791
-0.0200055
-1.52757
1.52239
0.0245838
0.000603901
-0.0198727
-1.50399
1.49177
0.0313333
0.000768199
-1.46787
0.0519008
1.47765
-0.0628456
0.001169
-1.52894
0.0847747
1.53759
-0.0947838
0.00136527
-1.53612
0.0620466
-0.0658628
0.00160562
1.53834
-1.54792
0.0598837
-0.0640644
0.00158425
1.55052
0.057222
-1.55633
1.55779
-0.0604586
0.0017727
0.0530905
-1.56068
1.56118
-0.0557129
0.00211769
0.0501726
-1.56162
1.56161
-0.0526224
0.00245875
0.0475969
-1.56068
1.56021
-0.0497959
0.00266734
-1.55427
0.17498
6.16308
-0.163665
0.0147138
-1.53675
-1.55633
-1.54175
23.8298
-0.741933
0.0669567
-6.10274
-5.7987
-6.10751
-5.79312
23.8486
-0.72408
0.0650647
23.8648
-0.713243
0.0631111
23.8802
-0.705365
0.0610291
23.8944
-0.699715
0.0590804
23.9072
-0.695454
0.0572948
23.919
-0.692154
0.0556225
23.9299
-0.68951
0.0540212
23.9403
-0.687346
0.0524735
23.9504
-0.685477
0.0509787
23.9602
-0.683745
0.049537
23.9701
-0.682187
0.0481191
23.9801
-0.680625
0.0467731
23.99
-0.679022
0.0454103
24.0003
-0.67759
0.0439891
24.0106
-0.676129
0.0424318
24.021
-0.674727
0.0406194
24.0311
-0.673365
0.0384081
-0.671489
0.0357242
25.003
0.00429867
0.000623107
25.0036
0.0236657
0.00130284
25.0008
0.0451051
0.00208781
24.9951
0.0675166
0.00301182
24.9864
0.0951079
0.00419662
24.9729
0.132772
0.00573338
24.9533
0.185313
0.00763864
24.9223
0.263913
0.0100744
6.21343
0.390792
0.0129499
6.22148
6.21313
6.22115
-0.107205
6.19803
0.120745
0.00186701
-0.0397287
-1.5421
1.53594
0.0455667
0.000320022
-0.0829399
-1.50644
1.48786
0.101206
0.000314262
0.00435366
-0.0746175
0.0747973
-0.00457569
4.22754e-05
-0.0213825
0.000450005
0.0208946
2.09028e-06
3.57992e-05
-0.198358
0.00901313
-0.0195503
-0.00313782
0.212033
-1.15796
0.0517615
-0.0725535
-0.00347754
1.18223
0.0499437
-1.238
1.25164
-0.0589221
-0.00466129
0.052865
-1.29189
1.30461
-0.0604863
-0.0050988
0.0533851
-1.33672
1.34614
-0.0578457
-0.00496335
0.0532459
-1.36922
1.37678
-0.0564765
-0.00432428
-1.40907
0.191932
5.80852
-0.216155
-0.0135991
-1.49656
-1.37508
-1.49
24.0785
-0.677331
-0.100583
-5.86355
-6.16916
-5.84252
-6.16733
24.1075
-0.652769
-0.10022
24.1361
-0.641415
-0.100514
24.1651
-0.633245
-0.101101
24.1935
-0.626273
-0.101848
24.2212
-0.620608
-0.102544
24.2482
-0.616058
-0.103097
24.2743
-0.612243
-0.10332
24.2992
-0.609059
-0.103186
24.3227
-0.606359
-0.102669
24.3449
-0.604048
-0.101815
24.3655
-0.602161
-0.100614
24.3846
-0.60057
-0.0992278
24.4025
-0.599211
-0.0976573
24.4189
-0.59797
-0.0960708
24.4344
-0.596989
-0.0946035
24.4489
-0.595887
-0.0933794
24.4625
-0.594349
-0.0926177
-0.591532
-0.0926146
25.0047
-0.000645258
0.000472626
25.01
0.0174307
0.000973109
25.0149
0.0386671
0.0015048
25.0189
0.0614581
0.00209212
25.0208
0.0904892
0.00271089
25.026
0.124272
0.00341671
25.0381
0.169101
0.00405323
25.0643
0.233374
0.00441108
6.2746
0.334704
0.00411275
6.28235
6.2748
6.2845
-0.112712
6.28243
0.10446
0.000414779
-0.044919
-1.57807
1.5798
0.0431749
1.23544e-05
-0.0845416
-1.59857
1.6137
-0.00019884
0.0696067
-0.02588
-1.71409
1.75297
-0.00110221
0.0561507
-0.0210558
-0.0259675
-0.02103
0.101275
-1.7136
1.68371
-0.00123438
-0.0701535
0.102376
-1.60947
-0.00142554
1.59902
-0.0905003
0.0779336
-1.58487
-0.00152864
1.58203
-0.0735689
0.0569789
-1.57752
1.5766
-0.0543785
-0.00167849
0.0579412
-1.5748
1.57296
-0.0543169
-0.00178651
0.0524362
-1.5724
1.57169
-0.0498792
-0.00184761
0.0488198
-1.57056
1.56999
-0.0463926
-0.00186257
-1.56746
0.180215
6.26403
-0.161384
-0.014195
-1.56699
-1.56717
-1.56706
25.0657
-0.553123
-0.118814
-6.26724
-6.26709
-6.26917
-6.26761
25.0666
-0.533793
-0.119953
25.0644
-0.518408
-0.120791
25.0617
-0.509099
-0.121427
25.0595
-0.502064
-0.122011
25.0579
-0.496506
-0.122496
25.0567
-0.49193
-0.122945
25.0556
-0.487851
-0.123276
25.055
-0.48488
-0.123523
25.0544
-0.482117
-0.123684
25.0538
-0.479598
-0.123819
25.0533
-0.477928
-0.12379
25.0529
-0.476366
-0.123795
25.0522
-0.474786
-0.123732
25.052
-0.473949
-0.123753
25.0519
-0.472993
-0.123907
25.0522
-0.471914
-0.124256
25.0531
-0.470336
-0.124906
-0.468354
-0.125827
25.0056
-0.00564283
0.000291063
25.014
0.00841527
0.000635583
25.027
0.0247861
0.00094237
25.0383
0.0490007
0.00119278
25.0537
0.0738628
0.00133335
25.0772
0.0995746
0.00125709
25.1152
0.130401
0.00078878
25.1786
0.170536
-0.000544607
6.32078
0.232815
-0.00327063
6.3189
6.325
6.31919
-0.0896074
6.33696
0.0741653
-0.000733663
-0.0334666
6.41389
0.0885824
-0.00173947
-0.0346411
-0.0335949
-0.0342168
-6.3648
-0.0335254
6.51823
0.0763083
-0.00375579
-0.0262262
-0.0334385
-0.0262051
-6.4714
-0.00711413
-6.54906
6.51528
-0.00587949
-0.0068126
0.0153549
-0.00744468
0.0456308
0.0458174
-6.53688
6.5149
-0.123921
-0.00997621
0.0395638
0.0365379
0.0339174
0.0553225
-6.45027
6.41275
-0.177801
-0.0121107
0.0558103
0.0576618
0.0586158
0.0565251
-6.373
6.34111
-0.175818
-0.0132973
0.0552456
0.0554303
0.0538095
0.0468134
-6.32318
6.31207
-0.158011
-0.0141269
0.0459078
0.0455662
0.0449748
0.0449407
-6.30334
6.2973
-0.157614
-0.0146874
0.0447384
0.0444161
0.0442493
0.0420651
-6.2926
6.2869
-0.145314
-0.0150023
0.0415833
0.0414802
0.0408768
0.0392127
-6.28229
6.27648
-0.133609
-0.0151549
0.0387484
0.0386032
0.0379984
0.14506
-6.27457
6.27237
-0.127607
-0.0152635
25.0665
-0.415346
-0.126855
-6.2695
-6.26957
-6.26961
-6.26881
25.0582
-0.398501
-0.126922
25.0542
-0.387442
-0.126973
25.0517
-0.37954
-0.127046
25.0503
-0.373617
-0.12708
25.0495
-0.36871
-0.127028
25.0493
-0.364805
-0.126879
25.0496
-0.361526
-0.126634
25.0498
-0.358813
-0.126297
25.0502
-0.356574
-0.125883
25.0506
-0.354525
-0.125446
25.0509
-0.353345
-0.124953
25.0509
-0.351956
-0.124434
25.0516
-0.351393
-0.124005
25.052
-0.350678
-0.12369
25.0524
-0.34986
-0.123516
25.0535
-0.349496
-0.123562
25.0559
-0.348838
-0.123899
-0.348261
-0.124557
25.0062
-0.0106651
0.00020958
25.016
-0.00174654
0.000395663
25.0249
0.0154831
0.000500073
25.0414
0.0320272
0.000496762
25.0681
0.0470699
0.000230455
25.1016
0.0666112
-0.000432648
25.1492
0.084651
-0.0017346
25.2158
0.108189
-0.00415917
25.3253
0.131982
-0.00840841
25.4311
0.145793
-0.0154761
-0.0618441
-0.0574969
-0.0589891
-0.0575974
25.58
0.133517
-0.0263624
-0.0612605
-0.0647045
-0.0621426
-0.0678752
25.7152
0.0558917
-0.0416973
-0.0424229
-0.0284849
-0.0461273
-0.0324664
25.594
-0.155647
-0.0597316
0.0212345
0.124305
0.01943
0.171349
25.5022
-0.237647
-0.0783276
0.0836862
0.117348
0.0988558
0.107653
25.4342
-0.249081
-0.0933181
0.0834114
0.148855
0.0315016
0.146602
25.3487
-0.354218
-0.10428
0.135899
0.138972
0.133639
0.135616
25.2641
-0.325309
-0.111579
0.130012
0.133842
0.127155
0.130652
25.1967
-0.336647
-0.11653
0.133458
0.130611
0.12989
0.126686
25.152
-0.316546
-0.119818
0.123734
0.120714
0.120195
0.116449
25.1267
-0.298097
-0.121954
0.113337
0.113192
0.108571
0.11024
25.1061
-0.28377
-0.123269
0.108756
0.108081
0.106033
0.104741
25.0882
-0.273551
-0.123853
25.0775
-0.26368
-0.124113
25.0707
-0.256406
-0.124295
25.0661
-0.25048
-0.124438
25.0628
-0.245901
-0.124377
25.0609
-0.242604
-0.124203
25.0592
-0.239135
-0.123938
25.0581
-0.236882
-0.123616
25.0571
-0.234538
-0.123275
25.0565
-0.23305
-0.122941
25.0563
-0.231644
-0.122654
25.0557
-0.230249
-0.122444
25.0555
-0.22958
-0.122248
25.055
-0.22861
-0.122233
25.0547
-0.228037
-0.122322
25.0551
-0.227758
-0.122566
25.0561
-0.227467
-0.122996
25.0572
-0.226311
-0.123644
-0.225447
-0.124505
25.0065
-0.0154527
0.000125906
25.0096
-0.00498501
0.000226199
25.0172
0.00767957
0.000199983
25.0368
0.0125392
3.26622e-05
25.0623
0.0221748
-0.00047629
25.0917
0.0388501
-0.00151946
25.1398
0.0401056
-0.00332214
25.2012
0.0532531
-0.00629829
25.2807
0.0637912
-0.0111204
25.3771
0.0679773
-0.018396
25.4847
0.0545932
-0.0286961
25.5658
0.0171083
-0.0423633
25.5442
-0.076063
-0.0581062
25.5305
-0.150209
-0.0738681
25.4081
-0.0393022
-0.0873955
25.3255
-0.173498
-0.0980624
25.2749
-0.168983
-0.105574
25.2125
-0.163118
-0.111059
25.1666
-0.155681
-0.114832
25.1336
-0.147635
-0.117442
25.1093
-0.140252
-0.119202
25.0906
-0.134535
-0.120203
25.0773
-0.129635
-0.120781
25.0679
-0.125952
-0.121017
25.0614
-0.122926
-0.121049
25.057
-0.120698
-0.120783
25.0534
-0.118645
-0.120397
25.0514
-0.117155
-0.119923
25.05
-0.116162
-0.119332
25.0491
-0.11488
-0.118739
25.0485
-0.114293
-0.118159
25.0478
-0.113383
-0.117633
25.0478
-0.11311
-0.117149
25.0476
-0.112519
-0.116778
25.0479
-0.112424
-0.116546
25.0483
-0.111946
-0.116436
25.049
-0.112012
-0.116473
25.0501
-0.111851
-0.116686
25.0524
-0.11149
-0.117114
-0.112068
-0.117799
24.9868
0.000103764
24.9817
0.000197198
24.9893
0.000105811
25.0021
-7.70461e-05
25.0251
-0.000713966
25.066
-0.00185831
25.1102
-0.00380905
25.1706
-0.00698676
25.2466
-0.0119632
25.3339
-0.0191218
25.4175
-0.0288484
25.4759
-0.0412567
25.4551
-0.0552811
25.3742
-0.06941
25.417
-0.0820142
25.3362
-0.0926143
25.2678
-0.100336
25.2106
-0.105853
25.1649
-0.10978
25.1299
-0.112547
25.1041
-0.114454
25.0852
-0.115631
25.0719
-0.116268
25.0624
-0.116461
25.056
-0.116445
25.0514
-0.116167
25.0485
-0.11575
25.0467
-0.115299
25.0452
-0.11469
25.0445
-0.114123
25.0438
-0.113618
25.0436
-0.113138
25.0432
-0.112731
25.0431
-0.112462
25.0431
-0.112386
25.0436
-0.112429
25.0442
-0.112608
25.0453
-0.112952
25.0473
-0.113496
-0.114285
24.9958
0.00131129
0.0023524
24.9891
0.00412349
0.0048703
24.9783
0.00674323
0.00785046
24.9624
0.00991925
0.0115948
24.9411
0.0128059
0.0164553
24.912
0.0176005
0.0228808
24.8703
0.0259845
0.0313005
24.8131
0.036133
0.0421597
24.7576
0.0279853
0.0557929
24.7213
0.00065852
0.0725241
24.6959
-0.0195512
0.0916048
24.633
0.00789837
0.112386
24.661
-0.0933431
0.133425
24.7783
-0.192797
0.153346
24.8108
-0.116618
0.170505
24.8347
-0.115075
0.184403
24.8575
-0.119469
0.195448
24.8762
-0.11965
0.204356
24.8927
-0.120579
0.211479
24.9198
-0.133771
0.217101
24.9471
-0.135944
0.221347
24.9685
-0.131558
0.224606
24.9857
-0.128409
0.227069
25.0001
-0.126625
0.22888
25.0123
-0.124998
0.230161
25.023
-0.123956
0.230999
25.0323
-0.122689
0.231476
25.0402
-0.121458
0.231657
25.0472
-0.120494
0.231652
25.0534
-0.119551
0.231547
25.0587
-0.11839
0.231383
25.0629
-0.117291
0.231222
25.0669
-0.116799
0.231084
25.0706
-0.116424
0.231073
25.0736
-0.115701
0.231097
25.0767
-0.115708
0.231245
25.0797
-0.11564
0.231321
25.0828
-0.11583
0.231454
25.0866
-0.116446
0.2314
-0.117063
0.230603
24.9958
0.00271169
0.00229398
24.9891
0.00830478
0.00476139
24.9778
0.0141244
0.0076949
24.9618
0.0199651
0.0114013
24.9401
0.0262466
0.0162327
24.9126
0.0335313
0.0226614
24.8797
0.0432115
0.0311523
24.8373
0.0574432
0.0422672
24.7746
0.0626439
0.0565377
24.6987
0.0396659
0.0743797
24.6553
-0.0232571
0.0954564
24.5929
0.0113475
0.118821
24.6279
-0.198655
0.142538
24.7603
-0.406604
0.164677
24.8415
-0.288522
0.183027
24.9094
-0.281209
0.197517
24.9595
-0.273444
0.208967
24.9995
-0.267937
0.218018
25.0447
-0.277278
0.225185
25.0769
-0.280137
0.230648
25.0959
-0.271033
0.234743
25.1095
-0.262769
0.237838
25.1187
-0.256447
0.240218
25.1258
-0.253432
0.241978
25.1317
-0.251248
0.243234
25.136
-0.248989
0.244075
25.1392
-0.24684
0.244606
25.1423
-0.245554
0.244906
25.1446
-0.243813
0.245051
25.1462
-0.242078
0.245098
25.1477
-0.240635
0.245095
25.149
-0.239288
0.245085
25.1495
-0.237864
0.245147
25.1498
-0.237164
0.245244
25.1504
-0.236774
0.245403
25.1504
-0.236245
0.245597
25.1509
-0.236626
0.245778
25.1519
-0.237423
0.245896
25.153
-0.238083
0.245867
-0.239458
0.24504
24.9958
0.00419513
0.0021847
24.9893
0.0124643
0.00455058
24.978
0.021519
0.00738061
24.9615
0.030839
0.0109788
24.9387
0.041076
0.015712
24.9088
0.0522433
0.0220836
24.8709
0.0657878
0.030661
24.8244
0.0828961
0.0421712
24.7585
0.0998678
0.0574675
24.663
0.096603
0.0773311
24.5844
0.00565414
0.10202
-0.00405081
0.00559731
-0.0026859
24.7175
-0.0372559
0.130159
-0.0573509
-0.0360033
-0.0551967
24.5757
0.0225923
0.158446
-0.0935683
0.0253476
-0.0897192
24.7391
-0.213274
0.184459
-0.122409
-0.209121
-0.117207
24.8305
-0.127222
0.203851
-0.119519
-0.122057
-0.113475
24.8901
-0.116367
0.218313
-0.114869
-0.11088
-0.108692
24.9431
-0.113684
0.229709
-0.113432
-0.10789
-0.107451
25.0082
-0.116497
0.238723
-0.11585
-0.110801
-0.110105
25.0508
-0.113798
0.245718
-0.112933
-0.108438
-0.108195
25.0772
-0.111085
0.250833
-0.109844
-0.106573
-0.105024
25.096
-0.417829
0.25441
25.1087
-0.405153
0.257084
25.1169
-0.39534
0.259123
25.1228
-0.39143
0.261353
25.1273
-0.388671
0.262874
25.1306
-0.385953
0.264151
25.1334
-0.383207
0.264528
25.135
-0.380856
0.264861
25.1363
-0.378467
0.264977
25.1378
-0.376775
0.264963
25.1383
-0.373811
0.264882
25.1386
-0.371968
0.264799
25.1392
-0.370256
0.264516
25.1389
-0.368514
0.2648
25.1381
-0.367581
0.264889
25.1375
-0.367102
0.265017
25.1369
-0.367357
0.265115
25.1363
-0.368171
0.265098
25.1365
-0.369528
0.264906
-0.371094
0.263914
24.9967
0.00538903
0.00202136
24.9904
0.0165647
0.00422195
24.9794
0.028971
0.0068663
24.9631
0.0419299
0.0102477
24.9401
0.0566136
0.014739
24.9071
0.074766
0.0208591
24.8623
0.0958805
0.0293035
24.8042
0.120567
0.0409587
24.7355
0.139916
0.0571075
6.14253
0.0380399
0.0794004
0.0533243
0.0378508
0.0530732
6.16214
6.14311
6.16191
-0.0115678
6.12505
0.0171511
0.0175418
-0.0154839
-6.11294
6.1008
-0.0329861
0.0234228
-0.0195548
-6.10467
6.09709
0.0202628
0.0295823
-0.0235777
-6.11257
6.14466
-0.25731
0.035637
-0.0265204
-6.16309
6.17724
-0.154854
0.0400532
-0.0284596
-6.19071
6.20167
-0.141855
0.0429689
-0.0299153
-6.21276
6.22719
-0.143488
0.0452466
-0.0310761
-6.24006
6.24742
-0.139908
0.0471054
-0.0319633
-6.25336
6.25873
-0.135722
0.0485185
-0.0325796
-6.26257
6.26664
-0.132142
0.0495813
25.1058
-0.146256
0.281227
-0.146756
-0.145211
-0.143353
-6.27042
-6.27443
-6.26983
-6.27388
25.1118
-0.559518
0.283286
25.1135
-0.545593
0.284218
25.1145
-0.542382
0.286447
25.114
-0.539096
0.28821
25.112
-0.535872
0.289889
25.1103
-0.533394
0.290638
25.1083
-0.530552
0.291259
25.1058
-0.527389
0.291567
25.1027
-0.524411
0.291637
25.0996
-0.520726
0.291551
25.0958
-0.517486
0.291388
25.0913
-0.514051
0.290932
25.0862
-0.511419
0.291014
25.0804
-0.509254
0.29076
25.0743
-0.508027
0.290571
25.0672
-0.507057
0.290146
25.0601
-0.50744
0.289462
25.0539
-0.509243
0.28835
-0.510664
0.286133
24.9983
0.00503226
0.00180066
24.9932
0.0198043
0.00376533
24.9835
0.0354051
0.00612617
24.9688
0.0520482
0.0091455
24.9466
0.0721864
0.0131699
24.9144
0.0978788
0.0184378
24.8657
0.131458
0.0264188
24.7929
0.174753
0.0373044
6.17327
0.225971
0.0529483
6.16619
6.17401
6.16658
-0.00786002
6.15794
0.049234
0.0119706
-0.0112658
6.1316
0.0171699
-6.16042
0.0198796
0.0114442
0.0200673
0.011207
-0.0397003
-0.0156203
-6.07867
6.04503
0.0239183
-0.00199471
0.00340858
-0.00217595
0.00348856
0.0227705
-0.0206372
-6.04314
6.05666
0.0316286
0.0521771
-0.0404658
0.0516062
-0.0400508
-0.0475057
-0.0258219
-6.09718
6.13853
0.039278
-0.0514348
-0.129439
-0.0521586
-0.128845
0.307317
-0.0286485
-6.16975
6.18153
0.0433904
-0.0504369
-0.0541691
-0.0511674
-0.0534571
0.18281
-0.0300579
-6.19518
6.20938
0.045575
-0.0509688
-0.050884
-0.0516871
-0.0502041
0.173987
-0.0310305
-6.22317
6.23519
0.0472602
-0.0491723
-0.0498052
-0.0499649
-0.0490575
0.169701
-0.0317605
-6.24501
6.25247
0.0486085
-0.0464012
-0.0472939
-0.0475701
-0.0464056
0.163381
-0.0322935
-6.25919
6.26373
0.0496679
-0.044198
-0.0453257
-0.0452746
-0.044285
0.157227
-0.032642
-6.26796
6.27009
0.0505048
-0.0423341
-0.0435674
-0.0432524
-0.042427
0.151645
-6.27239
-0.0325652
6.27404
-0.166522
0.0512014
25.0471
-0.682721
0.291008
-6.27444
-6.26756
-6.27467
-6.26831
25.0162
-0.674635
0.289292
24.9845
-0.669523
0.287474
24.9537
-0.665324
0.284749
24.9255
-0.66259
0.281723
24.8996
-0.659922
0.278692
24.8764
-0.656528
0.275034
24.8554
-0.652411
0.271616
24.8358
-0.647535
0.268282
24.8178
-0.642201
0.265101
24.8006
-0.636739
0.261897
24.7838
-0.631391
0.259437
24.7669
-0.626358
0.256885
24.7501
-0.622312
0.254496
24.7328
-0.619053
0.252155
24.7159
-0.616944
0.249631
24.6993
-0.616185
0.246675
24.6837
-0.61731
0.243041
-0.621146
0.23813
25.002
0.00154979
0.00153579
24.9996
0.020528
0.00319455
24.9918
0.0405576
0.00516905
24.9797
0.0603206
0.007664
24.9622
0.0842799
0.0109516
24.9362
0.116688
0.0149176
24.894
0.162866
0.0216281
24.823
0.230643
0.030342
6.17279
0.337328
0.0431077
6.17178
6.17323
6.17191
-0.00624723
-0.0641782
6.14732
0.086203
0.00972973
-0.00205763
-0.0192608
-1.52807
1.52282
0.0238487
0.0027277
-0.00305122
-0.0185885
-1.50432
1.49166
0.030435
0.00390065
-0.00444511
-1.46864
0.0523808
1.4785
-0.0634113
0.00565625
-0.00619622
-1.52791
0.153995
1.53941
-0.167044
0.00777859
-0.00718993
-1.53646
0.060808
-0.064314
1.53862
0.00856452
-1.54848
-0.0073916
0.0599746
-0.0644058
0.00895368
1.55136
-0.00725755
0.0575484
-1.55715
1.55859
-0.060902
0.00917279
-0.00705155
0.0537838
-1.56141
1.56189
-0.0565279
0.00931626
-0.00683962
0.0512201
-1.56226
1.56222
-0.0537047
0.00937189
-0.00662009
0.0488591
-1.56118
1.56062
-0.0510089
0.00932666
-1.55429
-0.0241566
0.180582
6.15998
-0.17167
0.0427514
-1.53615
-1.55599
-1.54104
23.8196
-0.795464
0.153454
-6.0993
-5.8032
-6.09837
-5.79248
23.8323
-0.77306
0.150825
23.8434
-0.764331
0.146846
23.8549
-0.756832
0.141118
23.8665
-0.750198
0.135066
23.8781
-0.743612
0.129424
23.8902
-0.736694
0.123675
23.9025
-0.729347
0.118631
23.915
-0.721704
0.114114
23.9276
-0.713915
0.11012
23.9403
-0.706227
0.106377
23.9525
-0.69901
0.103521
23.9646
-0.692429
0.10072
23.9763
-0.686716
0.0981072
23.9878
-0.682003
0.0954735
23.999
-0.678345
0.0925903
24.0101
-0.675732
0.0891205
24.0207
-0.674111
0.0845289
-0.673365
0.0777702
25.0089
0.000333878
0.00121874
25.0094
0.0186594
0.00252985
25.0059
0.0420752
0.00404391
24.999
0.0643149
0.00588528
24.989
0.0903211
0.0082068
24.9753
0.12535
0.010713
24.9558
0.174901
0.0151378
24.9254
0.250924
0.0202236
6.21381
0.37711
0.0271057
6.22177
6.2139
6.22194
-0.00371001
-0.104146
6.19833
0.117523
0.0058281
-0.00113857
-0.0390652
-1.54205
1.5359
0.0448462
0.00151656
-0.00148508
-0.0823879
-1.50582
1.48724
0.100482
0.00198901
-0.000166003
0.00452632
-0.0747286
0.0749873
-0.00481856
0.000199158
-0.00179773
-0.164349
0.00228896
-0.0118108
-0.00597453
0.181642
-1.1552
0.00509189
0.0536926
-0.0762278
-0.0118604
1.18449
0.00546409
0.0514393
-1.24855
1.26252
-0.0608902
-0.00998188
0.00518957
0.0553765
-1.30109
1.31316
-0.0638004
-0.00883826
0.00474907
0.0550046
-1.3429
1.35165
-0.060379
-0.00811431
0.00429494
0.0542316
-1.37308
1.3805
-0.0584609
-0.00749154
-1.41335
0.0198542
0.201496
5.82819
-0.223256
-0.0402746
-1.4992
-1.38213
-1.49134
24.1624
-0.709393
-0.226797
-5.88745
-6.17274
-5.8868
-6.17529
24.198
-0.682908
-0.225994
24.2296
-0.672953
-0.22347
24.2573
-0.664762
-0.220854
24.2802
-0.656932
-0.217974
24.2984
-0.649684
-0.214709
24.3128
-0.643023
-0.211107
24.3241
-0.636705
-0.207253
24.3332
-0.630776
-0.203241
24.341
-0.625255
-0.199151
24.3485
-0.620415
-0.195098
24.3564
-0.61645
-0.191138
24.3655
-0.613306
-0.18744
24.3759
-0.610668
-0.184028
24.3875
-0.608653
-0.181037
24.4003
-0.607157
-0.178611
24.4142
-0.606013
-0.177042
24.4288
-0.604594
-0.176669
-0.601606
-0.177993
25.0081
-0.00459304
0.000904909
25.015
0.0108899
0.0018467
25.0215
0.0342285
0.00286879
25.0252
0.0587587
0.00400212
25.0243
0.0887299
0.00526359
25.0284
0.118295
0.00638143
25.0402
0.159318
0.00798784
25.0682
0.218384
0.00898496
6.2758
0.308426
0.00904879
6.28793
6.27712
6.29106
-0.000906241
-0.109028
6.28329
0.101
0.00142624
-9.27506e-05
-0.0441789
-1.57784
1.57957
0.0424076
0.000119531
0.000493601
-0.0819308
-1.60031
1.61697
0.0652876
-0.000531986
0.00243238
-0.0267988
-1.71318
1.75128
0.0596132
-0.000753353
-0.0222845
-0.0277631
-0.0225629
0.00449221
0.112206
-1.7117
1.68025
-0.0798846
-0.00540847
0.106452
-1.60956
0.00604383
1.59841
-0.094108
-0.00728693
0.00655078
0.0754641
-1.58323
-0.00815855
1.58103
-0.0716787
0.00671741
0.0556545
-1.57773
1.57623
-0.052271
-0.00861427
0.00672951
0.0580451
-1.57535
1.5739
-0.0545402
-0.00877883
0.00672416
0.0526719
-1.57295
1.57226
-0.0498956
-0.00880997
0.00666758
0.0491379
-1.56936
1.56964
-0.0473591
-0.00872662
-1.5697
0.0274604
0.185489
6.27363
-0.162624
-0.0438661
-1.56984
-1.56993
-1.57063
25.0839
-0.547901
-0.26288
-6.27609
-6.26913
-6.28153
-6.2747
25.0841
-0.53883
-0.264212
25.0813
-0.52631
-0.264658
25.0782
-0.517726
-0.265297
25.0749
-0.509882
-0.265767
25.0722
-0.503573
-0.265869
25.0695
-0.497702
-0.265616
25.067
-0.492454
-0.265051
25.0648
-0.4878
-0.264233
25.0626
-0.483514
-0.263229
25.0606
-0.48008
-0.262135
25.0592
-0.477584
-0.261268
25.0578
-0.47566
-0.260029
25.0563
-0.473722
-0.259211
25.0556
-0.47301
-0.258679
25.0553
-0.472115
-0.258627
25.0554
-0.471222
-0.25923
25.0562
-0.469597
-0.260651
-0.467529
-0.262799
25.0067
-0.0089427
0.000602119
25.0165
0.000483092
0.00119805
25.0305
0.0195702
0.00175528
25.0386
0.0496801
0.0022222
25.056
0.0703627
0.00248961
25.0792
0.09419
0.00235796
25.1169
0.121245
0.00145274
25.182
0.15384
-0.00093309
6.32953
0.194948
-0.00608954
6.31848
6.33366
6.31692
-0.0857119
0.00136106
6.34786
0.0681591
-0.00211249
-0.0329061
0.00350203
6.42172
0.0873146
-0.00506021
-0.0309557
-0.0330522
-0.0300108
-6.3805
-0.0295322
0.00754958
6.49343
0.0817569
-0.0108659
-0.0289497
-0.028584
-0.0312438
-6.45363
-0.00944078
0.0133669
-6.54198
6.501
-0.0578052
-0.0199772
0.0630139
-0.0107426
0.0623497
0.0353843
0.0203972
-6.49355
6.47475
-0.144455
-0.0302636
0.0519306
0.0345513
0.0510363
0.0584936
-6.45099
0.025616
6.40741
-0.183183
-0.0378504
0.0575419
0.0619123
0.0609363
0.0561587
0.0283764
-6.36757
6.34014
-0.177321
-0.042172
0.0541929
0.0550585
0.0531451
0.0460183
0.0300534
-6.32666
6.31979
-0.159547
-0.0448746
0.0454594
0.0451094
0.0446967
0.0450596
0.0310805
-6.31545
6.30728
-0.15622
-0.0465542
0.0456713
0.0442531
0.0448881
0.0445536
0.0315594
-6.29816
6.28878
-0.146726
-0.0474754
0.0421329
0.0438524
0.0414524
0.0397351
0.0317341
-6.28094
6.27283
-0.130283
-0.0479003
0.0367962
0.0401101
0.0378831
0.142325
-6.27114
0.0318318
6.27127
-0.126236
-0.0480764
25.0687
-0.400417
-0.267349
-6.26964
-6.26799
-6.27027
-6.26785
25.0617
-0.391815
-0.266933
25.0578
-0.383068
-0.266385
25.055
-0.375802
-0.266137
25.0537
-0.369961
-0.265636
25.0526
-0.364697
-0.264788
25.0522
-0.360559
-0.263645
25.0524
-0.356982
-0.262278
25.0525
-0.353435
-0.260772
25.0532
-0.350895
-0.259218
25.0537
-0.348345
-0.257678
25.0544
-0.346741