/*--------------------------------*- C++ -*----------------------------------*\
| =========                 |                                                 |
| \\      /  F ield         | OpenFOAM: The Open Source CFD Toolbox           |
|  \\    /   O peration     | Version:  2306                                  |
|   \\  /    A nd           | Website:  www.openfoam.com                      |
|    \\/     M anipulation  |                                                 |
\*---------------------------------------------------------------------------*/
FoamFile
{
    version     2.0;
    format      ascii;
    arch        "LSB;label=32;scalar=64";
    class       volVectorField;
    location    "1.8";
    object      U;
}
// * * * * * * * * * * * * * * * * * * * * * * * * * * * * * * * * * * * * * //

dimensions      [0 1 -1 0 0 0 0];

internalField   nonuniform List<vector> 
111542
(
(99.9934 0.00573595 0.00237717)
(99.9711 0.0117373 0.00501805)
(99.9297 0.0179416 0.0080246)
(99.8678 0.0244659 0.0118481)
(99.7839 0.0310277 0.0168743)
(99.676 0.0368289 0.0235645)
(99.5431 0.0399882 0.0322115)
(99.3875 0.0375175 0.04335)
(99.2183 0.0247576 0.0575316)
(99.0556 -0.00475079 0.0748136)
(98.9324 -0.0568813 0.0947307)
(98.8898 -0.1294 0.116265)
(98.9549 -0.204205 0.138265)
(99.1197 -0.261556 0.15876)
(99.3401 -0.290408 0.17642)
(99.567 -0.300049 0.191199)
(99.7716 -0.299406 0.203293)
(99.9445 -0.293364 0.213239)
(100.085 -0.285077 0.221295)
(100.196 -0.276643 0.22774)
(100.282 -0.269311 0.232526)
(100.347 -0.263202 0.235978)
(100.395 -0.258078 0.238582)
(100.431 -0.254353 0.240367)
(100.459 -0.251837 0.241573)
(100.481 -0.250036 0.242559)
(100.499 -0.249022 0.243224)
(100.514 -0.248631 0.243696)
(100.527 -0.248527 0.244215)
(100.537 -0.248565 0.24483)
(100.547 -0.248705 0.245527)
(100.554 -0.248992 0.24624)
(100.561 -0.249292 0.247097)
(100.566 -0.249618 0.248086)
(100.571 -0.250037 0.249133)
(100.576 -0.25063 0.250151)
(100.581 -0.251503 0.251001)
(100.586 -0.252558 0.25175)
(100.593 -0.25383 0.252355)
(100.606 -0.255534 0.252792)
(99.9936 0.0170824 0.00233482)
(99.9718 0.0348812 0.00487372)
(99.931 0.0536665 0.00788372)
(99.8695 0.0737127 0.0117067)
(99.785 0.094351 0.0167192)
(99.674 0.113439 0.0233741)
(99.5331 0.126005 0.0321547)
(99.3619 0.123186 0.0436351)
(99.1662 0.0903069 0.0583724)
(98.9647 0.00622216 0.0766311)
(98.7986 -0.14671 0.0981755)
(98.7346 -0.362766 0.121241)
(98.8181 -0.589692 0.145032)
(99.0288 -0.754977 0.167206)
(99.295 -0.838778 0.185916)
(99.5511 -0.870073 0.201011)
(99.7712 -0.871121 0.213176)
(99.9514 -0.855802 0.223049)
(100.094 -0.83382 0.230933)
(100.204 -0.810586 0.237005)
(100.287 -0.789166 0.241427)
(100.348 -0.771576 0.244624)
(100.393 -0.758061 0.246975)
(100.426 -0.748449 0.248728)
(100.451 -0.740797 0.250104)
(100.47 -0.733823 0.251298)
(100.487 -0.727828 0.252398)
(100.5 -0.722904 0.253498)
(100.512 -0.718729 0.254678)
(100.522 -0.715148 0.255958)
(100.531 -0.712169 0.257321)
(100.538 -0.709893 0.258735)
(100.545 -0.708215 0.260189)
(100.55 -0.707204 0.261641)
(100.555 -0.706999 0.263023)
(100.559 -0.707742 0.264262)
(100.563 -0.709575 0.265281)
(100.568 -0.712347 0.266046)
(100.574 -0.716002 0.266528)
(100.584 -0.720482 0.266789)
(99.994 0.027979 0.00223008)
(99.9732 0.0571953 0.00466375)
(99.9341 0.0887547 0.00758543)
(99.8742 0.123355 0.0113113)
(99.7896 0.160606 0.0162248)
(99.6742 0.198082 0.0228181)
(99.5202 0.229399 0.0316861)
(99.32 0.240858 0.0435418)
(99.0708 0.205756 0.0591831)
(98.7892 0.0755052 0.0793183)
(98.5342 -0.259687 0.104318)
(98.4187 -0.725422 0.132785)
(98.5399 -1.14938 0.159291)
(98.846 -1.39487 0.183624)
(99.1952 -1.49665 0.203115)
(99.5015 -1.52707 0.217977)
(99.7502 -1.51241 0.229606)
(99.9446 -1.47651 0.238862)
(100.092 -1.43436 0.24602)
(100.201 -1.39225 0.251161)
(100.28 -1.35458 0.254287)
(100.335 -1.3201 0.256236)
(100.373 -1.29923 0.257782)
(100.401 -1.29052 0.25928)
(100.424 -1.28625 0.260811)
(100.442 -1.28273 0.262424)
(100.456 -1.27952 0.264204)
(100.467 -1.27659 0.266223)
(100.476 -1.27365 0.268511)
(100.483 -1.27059 0.271051)
(100.489 -1.26748 0.273773)
(100.494 -1.26451 0.276575)
(100.497 -1.26189 0.27934)
(100.499 -1.25986 0.281948)
(100.5 -1.2587 0.28427)
(100.5 -1.25869 0.286193)
(100.5 -1.26005 0.287608)
(100.499 -1.26281 0.288444)
(100.501 -1.26684 0.288696)
(100.504 -1.27158 0.288542)
(99.9946 0.037912 0.00206796)
(99.976 0.0778296 0.00433755)
(99.9404 0.121894 0.00707577)
(99.8848 0.171937 0.0105841)
(99.8036 0.22898 0.0152439)
(99.6873 0.292378 0.0215664)
(99.5214 0.357825 0.0302257)
(99.2852 0.41273 0.0420878)
(98.9493 0.427405 0.0582834)
(98.4489 0.22717 0.0803382)
(98.1902 0.0473825 0.0872392)
(97.8383 -0.611845 0.103406)
(97.8984 -1.42051 0.117838)
(98.3751 -1.94456 0.129984)
(98.8806 -2.1037 0.141432)
(99.2818 -2.13957 0.148736)
(99.6054 -2.10411 0.153627)
(99.8485 -2.03427 0.157152)
(100.025 -1.95874 0.159644)
(100.154 -1.89121 0.161257)
(100.315 -1.95316 0.263545)
(100.351 -1.88242 0.26365)
(100.359 -1.83273 0.264148)
(100.362 -1.80398 0.265742)
(100.367 -1.78608 0.268236)
(100.37 -1.77516 0.271357)
(100.369 -1.76941 0.274976)
(100.364 -1.76704 0.279033)
(100.357 -1.76656 0.283448)
(100.348 -1.76708 0.288083)
(100.336 -1.76811 0.292753)
(100.321 -1.76944 0.297243)
(100.305 -1.77104 0.301333)
(100.285 -1.77306 0.304815)
(100.263 -1.77569 0.307506)
(100.239 -1.77924 0.309257)
(100.214 -1.784 0.309938)
(100.188 -1.79019 0.309475)
(100.163 -1.79774 0.30789)
(100.135 -1.80543 0.305542)
(99.9956 0.0461287 0.00184525)
(99.9806 0.0951511 0.00387936)
(99.9514 0.150479 0.00633098)
(99.9046 0.215649 0.00946539)
(99.8339 0.294254 0.0136305)
(99.7277 0.389849 0.0193016)
(99.5664 0.505148 0.027138)
(99.3173 0.638831 0.0380171)
(98.8749 0.777661 0.0531341)
(98.5301 0.78528 0.0586066)
(97.7138 0.395839 0.072666)
(96.9017 -0.672478 0.0908267)
(96.986 -2.33649 0.105724)
(98.1075 -2.95892 0.117224)
(98.8384 -3.00485 0.130627)
(99.3197 -2.96532 0.136426)
(99.6905 -2.84495 0.139088)
(99.9373 -2.70698 0.140846)
(100.098 -2.58058 0.142027)
(100.199 -2.47846 0.142833)
(100.265 -2.42035 0.14473)
(100.187 -2.53955 0.25094)
(100.058 -2.52436 0.247804)
(99.9346 -2.49838 0.246345)
(99.8256 -2.47 0.246132)
(99.7226 -2.44665 0.246962)
(99.6234 -2.42877 0.248835)
(99.5282 -2.41457 0.251757)
(99.4371 -2.40265 0.255614)
(99.3497 -2.3922 0.260139)
(99.2654 -2.38276 0.26494)
(99.1838 -2.37409 0.269558)
(99.1046 -2.36614 0.273527)
(99.0276 -2.35905 0.276427)
(98.9527 -2.35306 0.277922)
(98.88 -2.34848 0.277768)
(98.8099 -2.3457 0.275792)
(98.7432 -2.34529 0.271909)
(98.6821 -2.34824 0.266174)
(98.6206 -2.35677 0.259088)
(99.9971 0.0516988 0.00156499)
(99.9871 0.107113 0.00329671)
(99.9675 0.170898 0.00535875)
(99.9354 0.248414 0.00795125)
(99.8851 0.346308 0.0113399)
(99.8063 0.473732 0.0158832)
(99.6798 0.644244 0.0220718)
(99.4689 0.878169 0.0305374)
(99.0496 1.20722 0.042062)
(98.64 1.37009 0.0466708)
(97.6831 1.51356 0.0452039)
(95.5629 0.745365 0.0421293)
(94.3406 -3.41283 0.056572)
(98.1304 -4.7358 0.047308)
(98.6755 -3.96991 0.0499076)
(99.2778 -3.8851 0.0449507)
(99.6717 -3.66216 0.0650878)
(99.8269 -3.43702 0.104721)
(99.8385 -3.25275 0.145438)
(99.7514 -3.08564 0.172181)
(98.6949 -2.75805 0.182685)
(95.1714 -2.40191 0.140671)
(95.2454 -2.47265 0.138915)
(95.3361 -2.50835 0.1359)
(95.4131 -2.52918 0.131226)
(95.4774 -2.54721 0.125162)
(95.5347 -2.56465 0.118238)
(95.5876 -2.58108 0.110905)
(95.6367 -2.59609 0.103462)
(95.6827 -2.60944 0.09607)
(95.7265 -2.62092 0.0887982)
(95.769 -2.63038 0.0816606)
(95.8108 -2.6378 0.0746346)
(95.8526 -2.64332 0.0676923)
(95.8946 -2.64723 0.0607953)
(95.937 -2.64988 0.0538801)
(95.9799 -2.65171 0.0468409)
(96.0232 -2.65337 0.0395136)
(96.066 -2.65597 0.0317162)
(96.1139 -2.66208 0.0235665)
(99.9989 0.0537197 0.00125312)
(99.9954 0.11165 0.00262779)
(99.9881 0.179279 0.00421475)
(99.9756 0.263225 0.00612861)
(99.9554 0.372315 0.00850733)
(99.9226 0.519969 0.0115139)
(99.869 0.728132 0.0153108)
(99.78 1.03538 0.019975)
(99.608 1.51538 0.0253269)
(99.3403 1.91697 0.0275744)
(98.6207 2.85744 0.0248459)
(95.4734 5.87736 0.0189934)
(77.0344 -4.2345 0.0464419)
(102.636 -10.2845 0.021716)
(50.9391 -2.72082 -0.878052)
(74.1893 -3.95189 -0.405827)
(79.2267 -3.53694 -0.403313)
(82.9788 -3.49002 -0.363671)
(85.7406 -3.48041 -0.307078)
(87.764 -3.46145 -0.236852)
(92.5734 -3.63177 -0.16686)
(96.1749 -3.31496 -0.190292)
(96.3041 -3.19739 -0.188543)
(96.4493 -3.11051 -0.19011)
(96.5757 -3.04436 -0.194581)
(96.6908 -2.99097 -0.201338)
(96.803 -2.94671 -0.209595)
(96.9137 -2.90961 -0.218589)
(97.0216 -2.87826 -0.227623)
(97.1253 -2.85152 -0.236059)
(97.2236 -2.8285 -0.243351)
(97.3161 -2.80849 -0.249097)
(97.4025 -2.79096 -0.253062)
(97.4829 -2.77545 -0.255183)
(97.5575 -2.76162 -0.255556)
(97.6269 -2.74913 -0.254411)
(97.6915 -2.73762 -0.252111)
(97.752 -2.7266 -0.249123)
(97.8089 -2.71517 -0.246043)
(97.8751 -2.70103 -0.243691)
(100.001 0.0516888 0.0010038)
(100.004 0.10751 0.00199174)
(100.011 0.173113 0.00306313)
(100.02 0.255272 0.00424028)
(100.034 0.363031 0.00551539)
(100.055 0.509905 0.00682952)
(100.09 0.717238 0.00799496)
(100.152 1.0208 0.00852702)
(100.298 1.48279 0.00736539)
(100.348 1.89423 0.00681641)
(100.626 2.88073 0.00229315)
(102.463 5.40984 -0.00678002)
(111.225 3.88176 -0.0314081)
(109.108 -6.80413 0.0266838)
(102.787 -6.80455 -0.0251455)
(101.149 -4.98485 -0.0400586)
(100.712 -3.99783 -0.0543533)
(100.539 -3.46653 -0.0663659)
(100.446 -3.15997 -0.0727321)
(100.366 -2.97849 -0.0737139)
(100.257 -2.73801 -0.123652)
(100.271 -2.33657 -0.231354)
(100.254 -2.23157 -0.231999)
(100.241 -2.17013 -0.233675)
(100.232 -2.13474 -0.236389)
(100.224 -2.11153 -0.239852)
(100.218 -2.09496 -0.243715)
(100.213 -2.08288 -0.247777)
(100.21 -2.07392 -0.251944)
(100.207 -2.06711 -0.256134)
(100.205 -2.06189 -0.260248)
(100.204 -2.058 -0.264174)
(100.202 -2.05531 -0.267806)
(100.201 -2.05373 -0.271057)
(100.199 -2.05309 -0.273887)
(100.198 -2.05313 -0.276314)
(100.197 -2.05344 -0.278434)
(100.198 -2.05331 -0.280409)
(100.2 -2.05156 -0.282436)
(100.209 -2.04593 -0.284561)
(100.003 0.0453551 0.000632995)
(100.012 0.0943695 0.00127687)
(100.031 0.151997 0.00189765)
(100.061 0.224057 0.002401)
(100.106 0.317955 0.0026626)
(100.174 0.443754 0.00245653)
(100.278 0.61555 0.0013479)
(100.446 0.852757 -0.00146116)
(100.765 1.17968 -0.00746078)
(100.992 1.41942 -0.00983984)
(101.849 1.87475 -0.0183182)
(103.472 1.77242 -0.0342251)
(105.264 -0.248595 -0.0535149)
(104.808 -2.84263 -0.0352478)
(103.008 -3.56162 -0.0539282)
(101.794 -3.34519 -0.0681059)
(101.165 -2.99877 -0.0763524)
(100.822 -2.70881 -0.0815427)
(100.619 -2.49343 -0.0851592)
(100.48 -2.33365 -0.0879148)
(100.38 -2.20448 -0.0905296)
(100.273 -1.92254 -0.246529)
(100.238 -1.88489 -0.246529)
(100.215 -1.85601 -0.24679)
(100.203 -1.83407 -0.247658)
(100.197 -1.81558 -0.249058)
(100.193 -1.79886 -0.25079)
(100.192 -1.78372 -0.252677)
(100.192 -1.77018 -0.254571)
(100.193 -1.7582 -0.256345)
(100.195 -1.74772 -0.257896)
(100.196 -1.73868 -0.259155)
(100.198 -1.73096 -0.260095)
(100.199 -1.72441 -0.260731)
(100.201 -1.71875 -0.261126)
(100.202 -1.71368 -0.261382)
(100.204 -1.70877 -0.261637)
(100.208 -1.70353 -0.262058)
(100.214 -1.69749 -0.262829)
(100.23 -1.69057 -0.264154)
(100.004 0.0352311 0.000421538)
(100.019 0.0733329 0.000818859)
(100.049 0.117974 0.00104831)
(100.095 0.17337 0.000982495)
(100.163 0.244465 0.00042615)
(100.263 0.33699 -0.000963777)
(100.41 0.457119 -0.00374889)
(100.63 0.609204 -0.00884107)
(100.966 0.789326 -0.0177401)
(101.455 0.872887 -0.0324257)
(102.099 0.773751 -0.0548353)
(102.78 0.24235 -0.0854785)
(103.143 -0.750162 -0.119353)
(102.899 -1.58502 -0.149302)
(102.257 -1.8959 -0.178304)
(101.625 -1.90695 -0.201086)
(101.173 -1.82746 -0.216747)
(100.877 -1.72903 -0.227422)
(100.677 -1.63545 -0.234839)
(100.535 -1.55213 -0.239862)
(100.435 -1.47861 -0.243038)
(100.369 -1.41105 -0.24473)
(100.323 -1.35566 -0.245682)
(100.292 -1.30949 -0.246376)
(100.27 -1.27177 -0.24695)
(100.256 -1.24111 -0.247428)
(100.245 -1.21587 -0.247837)
(100.238 -1.19492 -0.248206)
(100.233 -1.17751 -0.248565)
(100.229 -1.16311 -0.248938)
(100.227 -1.15127 -0.24935)
(100.224 -1.14167 -0.249825)
(100.223 -1.13402 -0.250384)
(100.221 -1.12804 -0.251044)
(100.22 -1.1234 -0.251835)
(100.219 -1.11977 -0.25279)
(100.219 -1.1168 -0.253956)
(100.22 -1.11409 -0.255393)
(100.224 -1.11135 -0.257179)
(100.232 -1.1086 -0.259409)
(100.005 0.0223512 0.000256697)
(100.024 0.0464051 0.000431917)
(100.06 0.074556 0.000388429)
(100.117 0.109068 -4.1447e-05)
(100.2 0.152776 -0.00114595)
(100.317 0.20801 -0.00329669)
(100.483 0.276154 -0.00708892)
(100.712 0.354637 -0.0133675)
(101.024 0.430471 -0.0233096)
(101.427 0.464391 -0.0382616)
(101.895 0.400197 -0.0593548)
(102.33 0.162813 -0.0867846)
(102.557 -0.258414 -0.117708)
(102.444 -0.689633 -0.147404)
(102.057 -0.937013 -0.17404)
(101.596 -1.00096 -0.195332)
(101.212 -0.977193 -0.211266)
(100.932 -0.927943 -0.222797)
(100.731 -0.876352 -0.231167)
(100.581 -0.828778 -0.237127)
(100.469 -0.787526 -0.24117)
(100.388 -0.755193 -0.243706)
(100.328 -0.731733 -0.245189)
(100.286 -0.715045 -0.245916)
(100.255 -0.703288 -0.246097)
(100.234 -0.695169 -0.245896)
(100.219 -0.689563 -0.245452)
(100.209 -0.685667 -0.244872)
(100.202 -0.683022 -0.244231)
(100.197 -0.681374 -0.243591)
(100.194 -0.680538 -0.243002)
(100.192 -0.680383 -0.242507)
(100.191 -0.680788 -0.242135)
(100.19 -0.681669 -0.241917)
(100.19 -0.68262 -0.241912)
(100.191 -0.683624 -0.242126)
(100.193 -0.684527 -0.242585)
(100.197 -0.685138 -0.243341)
(100.204 -0.685312 -0.244482)
(100.22 -0.684873 -0.246207)
(100.006 0.00765896 0.000162351)
(100.027 0.0158525 0.000274153)
(100.066 0.0254716 6.16612e-05)
(100.128 0.0371268 -0.000493805)
(100.217 0.0518373 -0.00188541)
(100.342 0.0701248 -0.00440956)
(100.514 0.0919628 -0.00869697)
(100.742 0.115849 -0.0154738)
(101.036 0.136659 -0.0258825)
(101.388 0.141772 -0.0406944)
(101.765 0.111221 -0.0605527)
(102.091 0.0243025 -0.0852284)
(102.261 -0.115771 -0.112944)
(102.197 -0.261378 -0.140735)
(101.924 -0.35492 -0.165432)
(101.56 -0.385519 -0.185922)
(101.22 -0.381786 -0.202012)
(100.951 -0.367972 -0.213976)
(100.749 -0.35309 -0.22282)
(100.595 -0.339294 -0.229222)
(100.479 -0.327184 -0.233688)
(100.393 -0.317128 -0.236595)
(100.33 -0.308574 -0.23828)
(100.286 -0.300897 -0.238969)
(100.254 -0.293542 -0.239028)
(100.232 -0.286339 -0.238654)
(100.217 -0.279232 -0.237989)
(100.206 -0.272229 -0.237159)
(100.199 -0.2654 -0.236271)
(100.194 -0.258839 -0.235417)
(100.191 -0.252632 -0.234671)
(100.188 -0.246849 -0.234086)
(100.186 -0.241547 -0.233693)
(100.185 -0.236791 -0.233473)
(100.185 -0.232371 -0.23365)
(100.185 -0.228384 -0.23411)
(100.187 -0.224826 -0.234834)
(100.19 -0.221663 -0.235858)
(100.195 -0.21897 -0.237255)
(100.206 -0.217213 -0.23923)
(99.9935 0.00569415 0.00709753)
(99.9716 0.0115944 0.0148429)
(99.9307 0.0178041 0.0238775)
(99.8698 0.0243312 0.0352961)
(99.7875 0.0308828 0.0501797)
(99.6816 0.0366551 0.0697917)
(99.5513 0.0399517 0.0952684)
(99.3991 0.0378211 0.128104)
(99.2338 0.0256078 0.169672)
(99.0747 -0.00296879 0.220293)
(98.954 -0.0536109 0.278981)
(98.9119 -0.124622 0.34282)
(98.9744 -0.197352 0.4074)
(99.1333 -0.252689 0.467385)
(99.3463 -0.280362 0.51897)
(99.566 -0.289515 0.561757)
(99.7649 -0.288656 0.596571)
(99.9341 -0.282572 0.624821)
(100.073 -0.27438 0.647391)
(100.184 -0.266308 0.66507)
(100.271 -0.259266 0.678267)
(100.338 -0.253371 0.687931)
(100.39 -0.248483 0.695117)
(100.429 -0.244784 0.700125)
(100.461 -0.242094 0.703365)
(100.486 -0.240092 0.705365)
(100.506 -0.238648 0.706142)
(100.523 -0.237636 0.706024)
(100.536 -0.236886 0.705468)
(100.547 -0.236277 0.704682)
(100.555 -0.235766 0.703779)
(100.561 -0.235363 0.702826)
(100.566 -0.235083 0.702107)
(100.569 -0.234966 0.701695)
(100.572 -0.235064 0.701547)
(100.574 -0.235445 0.701555)
(100.576 -0.236154 0.701519)
(100.58 -0.237188 0.701437)
(100.586 -0.238576 0.701119)
(100.597 -0.240436 0.700359)
(99.9937 0.016937 0.00695066)
(99.9722 0.034532 0.0144928)
(99.932 0.053238 0.0234535)
(99.8716 0.0731951 0.0348012)
(99.7888 0.0937339 0.0496239)
(99.6801 0.112752 0.0692347)
(99.5425 0.125568 0.0951012)
(99.3754 0.123486 0.128923)
(99.1846 0.0920524 0.172329)
(98.9881 0.0107108 0.226254)
(98.8256 -0.137642 0.290141)
(98.7636 -0.346836 0.360691)
(98.8457 -0.568237 0.4322)
(99.0506 -0.730557 0.49771)
(99.3086 -0.812222 0.552252)
(99.557 -0.843031 0.596037)
(99.7711 -0.844152 0.631063)
(99.9474 -0.829199 0.659127)
(100.088 -0.807897 0.681229)
(100.197 -0.78581 0.698048)
(100.28 -0.765904 0.710326)
(100.343 -0.74974 0.719415)
(100.39 -0.737264 0.7262)
(100.426 -0.72796 0.73102)
(100.453 -0.720042 0.734182)
(100.475 -0.712523 0.736097)
(100.493 -0.705518 0.737084)
(100.507 -0.699175 0.737448)
(100.519 -0.693364 0.737443)
(100.529 -0.688002 0.73723)
(100.537 -0.683145 0.736927)
(100.544 -0.678925 0.736642)
(100.549 -0.675465 0.736503)
(100.552 -0.672944 0.736566)
(100.555 -0.671547 0.7368)
(100.557 -0.671421 0.737118)
(100.56 -0.672682 0.737372)
(100.563 -0.675311 0.737412)
(100.568 -0.679191 0.737043)
(100.578 -0.684087 0.736125)
(99.994 0.0277145 0.00663537)
(99.9737 0.0566671 0.0138698)
(99.9352 0.0879642 0.0225398)
(99.8765 0.122266 0.03358)
(99.7939 0.159186 0.0481175)
(99.6813 0.196383 0.0675924)
(99.5312 0.227651 0.0937844)
(99.3364 0.239582 0.128854)
(99.0938 0.206004 0.175209)
(98.8197 0.0792823 0.234985)
(98.5718 -0.248 0.308814)
(98.46 -0.703151 0.392374)
(98.5789 -1.11701 0.475521)
(98.8779 -1.35695 0.549429)
(99.2172 -1.45684 0.607406)
(99.5143 -1.48758 0.651575)
(99.7565 -1.47363 0.686068)
(99.9468 -1.43856 0.713308)
(100.092 -1.39743 0.734203)
(100.199 -1.35666 0.749299)
(100.278 -1.32139 0.759154)
(100.333 -1.29025 0.76618)
(100.373 -1.27163 0.771857)
(100.402 -1.26351 0.77632)
(100.426 -1.25854 0.779454)
(100.445 -1.25344 0.781432)
(100.46 -1.24796 0.782578)
(100.472 -1.24218 0.783149)
(100.481 -1.236 0.783329)
(100.489 -1.22948 0.783258)
(100.494 -1.22287 0.783057)
(100.499 -1.21655 0.78284)
(100.501 -1.21096 0.782701)
(100.503 -1.20647 0.782687)
(100.502 -1.20348 0.782777)
(100.501 -1.20232 0.782867)
(100.5 -1.20322 0.782772)
(100.499 -1.20624 0.782261)
(100.499 -1.21119 0.781127)
(100.503 -1.2172 0.779416)
(99.9946 0.037531 0.00614877)
(99.9764 0.0770564 0.0128867)
(99.9416 0.120664 0.0210013)
(99.8873 0.170136 0.0313906)
(99.8082 0.226465 0.0451914)
(99.695 0.289019 0.0639262)
(99.5338 0.353565 0.0896442)
(99.304 0.407699 0.125036)
(98.9767 0.422118 0.173626)
(98.4879 0.225208 0.23989)
(98.2299 0.0425076 0.273435)
(97.886 -0.618647 0.351357)
(97.9508 -1.422 0.43354)
(98.4256 -1.94717 0.508561)
(98.9212 -2.10692 0.565425)
(99.3133 -2.14687 0.604789)
(99.6306 -2.11527 0.633491)
(99.8695 -2.04806 0.655576)
(100.043 -1.97425 0.672365)
(100.169 -1.90776 0.684459)
(100.314 -1.94615 0.816615)
(100.347 -1.8819 0.820363)
(100.355 -1.83737 0.822659)
(100.357 -1.8118 0.825156)
(100.362 -1.79516 0.828035)
(100.364 -1.78344 0.831015)
(100.362 -1.77478 0.833847)
(100.358 -1.76746 0.83635)
(100.353 -1.76033 0.838399)
(100.345 -1.75296 0.839938)
(100.336 -1.74544 0.841)
(100.325 -1.73821 0.84167)
(100.311 -1.73181 0.842048)
(100.295 -1.72686 0.842198)
(100.275 -1.72391 0.842104)
(100.253 -1.72345 0.841638)
(100.228 -1.72587 0.840539)
(100.202 -1.73142 0.838439)
(100.176 -1.73996 0.834948)
(100.147 -1.74996 0.829917)
(99.9957 0.0456305 0.00548127)
(99.981 0.0941238 0.0115068)
(99.9526 0.148789 0.0187633)
(99.9071 0.213067 0.0280481)
(99.8385 0.290444 0.0404098)
(99.7354 0.384351 0.0573007)
(99.5788 0.497353 0.0807714)
(99.3364 0.627954 0.113644)
(98.9042 0.762612 0.159771)
(98.5619 0.764948 0.186164)
(97.7562 0.374162 0.254037)
(96.9571 -0.691391 0.341735)
(97.0525 -2.34071 0.440762)
(98.1709 -2.95715 0.529279)
(98.8859 -2.99788 0.587779)
(99.3538 -2.9681 0.618353)
(99.7181 -2.85894 0.637189)
(99.9616 -2.73081 0.651167)
(100.121 -2.61274 0.661816)
(100.218 -2.51721 0.669499)
(100.276 -2.46432 0.672287)
(100.155 -2.60446 0.801044)
(100.012 -2.59137 0.791779)
(99.8766 -2.56778 0.781747)
(99.7577 -2.54095 0.773004)
(99.6485 -2.51707 0.765839)
(99.5477 -2.49579 0.759872)
(99.4559 -2.47517 0.754651)
(99.3728 -2.45412 0.749806)
(99.2969 -2.43252 0.745083)
(99.2266 -2.41074 0.740352)
(99.1599 -2.38947 0.73557)
(99.0953 -2.36952 0.730722)
(99.0314 -2.35175 0.725776)
(98.9672 -2.33694 0.720625)
(98.902 -2.32576 0.71504)
(98.8361 -2.31881 0.708608)
(98.7702 -2.31675 0.700739)
(98.7072 -2.32066 0.690743)
(98.642 -2.33282 0.678323)
(99.9971 0.0511108 0.0046626)
(99.9875 0.105874 0.00976304)
(99.9686 0.168806 0.0158438)
(99.9376 0.245123 0.0235204)
(99.8891 0.34127 0.0336083)
(99.8129 0.466112 0.0472386)
(99.6902 0.632756 0.0659941)
(99.4846 0.86081 0.0920592)
(99.0733 1.18075 0.128285)
(98.6669 1.33957 0.150321)
(97.7178 1.47644 0.181363)
(95.6165 0.699543 0.239069)
(94.4162 -3.45357 0.337847)
(98.2341 -4.74152 0.449381)
(98.7561 -3.923 0.509238)
(99.3283 -3.88136 0.52401)
(99.7154 -3.6973 0.528983)
(99.8624 -3.50012 0.533713)
(99.8651 -3.33554 0.537729)
(99.7649 -3.18132 0.535363)
(98.6401 -2.87482 0.522447)
(95.1101 -2.64591 0.395579)
(95.168 -2.7172 0.381778)
(95.2406 -2.75367 0.371098)
(95.3011 -2.77237 0.363216)
(95.3536 -2.78314 0.357347)
(95.4051 -2.78704 0.352506)
(95.458 -2.78353 0.347981)
(95.5118 -2.77302 0.343428)
(95.566 -2.75673 0.33878)
(95.62 -2.73629 0.334112)
(95.6733 -2.71356 0.329549)
(95.7258 -2.69042 0.325106)
(95.7771 -2.66861 0.320728)
(95.8271 -2.64958 0.31624)
(95.8759 -2.63442 0.311302)
(95.9235 -2.62388 0.305352)
(95.9701 -2.61857 0.297528)
(96.0156 -2.61951 0.286513)
(96.0698 -2.62962 0.270184)
(99.999 0.0531445 0.00369498)
(99.9957 0.110339 0.00772438)
(99.9889 0.176985 0.0124)
(99.9773 0.259529 0.018072)
(99.9582 0.36653 0.0251846)
(99.927 0.511009 0.0342938)
(99.8753 0.714253 0.0460459)
(99.7883 1.01381 0.0609811)
(99.6173 1.48157 0.0790435)
(99.3505 1.8761 0.0900187)
(98.632 2.80195 0.10147)
(95.4813 5.78127 0.121374)
(77.1908 -4.4986 0.206954)
(42.8627 0.350737 -0.652447)
(74.0988 -4.11505 -0.833877)
(79.807 -3.81816 -0.785161)
(83.5282 -3.71924 -0.692225)
(86.092 -3.62393 -0.58225)
(87.978 -3.55344 -0.474067)
(92.817 -3.74382 -0.449993)
(96.508 -3.49652 -0.621322)
(96.6665 -3.38108 -0.61476)
(96.8298 -3.29506 -0.609475)
(96.959 -3.22778 -0.605776)
(97.0597 -3.17068 -0.60285)
(97.1406 -3.11968 -0.599401)
(97.2056 -3.07282 -0.594482)
(97.2572 -3.02906 -0.587631)
(97.2984 -2.988 -0.57879)
(97.3331 -2.94967 -0.568217)
(97.365 -2.91435 -0.556395)
(97.3972 -2.88242 -0.543914)
(97.4321 -2.8542 -0.53141)
(97.4714 -2.82989 -0.519496)
(97.5157 -2.80945 -0.508776)
(97.5652 -2.79261 -0.499928)
(97.6195 -2.77875 -0.493767)
(97.6773 -2.76673 -0.491441)
(97.7517 -2.75407 -0.494574)
(100.001 0.0510515 0.00279885)
(100.004 0.106152 0.00570109)
(100.011 0.170793 0.00885361)
(100.021 0.251554 0.0123362)
(100.035 0.357213 0.0161717)
(100.057 0.500885 0.0202629)
(100.091 0.70334 0.0241762)
(100.152 0.999499 0.0266941)
(100.293 1.45037 0.0249081)
(100.34 1.85523 0.0224389)
(100.609 2.82833 0.00930954)
(102.411 5.33597 -0.032592)
(110.992 4.03311 -0.0734741)
(108.998 -6.62612 -0.286733)
(102.738 -6.7553 -0.410484)
(101.114 -4.96287 -0.457847)
(100.682 -4.00521 -0.478873)
(100.517 -3.49743 -0.487706)
(100.432 -3.20502 -0.490564)
(100.362 -3.03057 -0.490081)
(100.264 -2.80051 -0.557366)
(100.29 -2.42073 -0.727498)
(100.277 -2.31877 -0.730465)
(100.267 -2.25674 -0.730762)
(100.259 -2.21755 -0.730775)
(100.25 -2.18785 -0.730956)
(100.241 -2.16289 -0.730919)
(100.233 -2.14141 -0.730369)
(100.226 -2.12292 -0.729182)
(100.219 -2.10719 -0.727327)
(100.212 -2.09427 -0.724862)
(100.206 -2.08429 -0.721936)
(100.201 -2.07732 -0.718774)
(100.196 -2.07326 -0.715631)
(100.193 -2.07181 -0.712854)
(100.19 -2.07245 -0.710837)
(100.189 -2.07443 -0.710067)
(100.189 -2.07668 -0.711123)
(100.192 -2.07754 -0.714635)
(100.203 -2.07415 -0.720876)
(100.003 0.0447619 0.00181382)
(100.013 0.0931874 0.00367858)
(100.032 0.149973 0.00544196)
(100.062 0.220804 0.00689589)
(100.107 0.312877 0.00770064)
(100.174 0.435953 0.00722913)
(100.277 0.603772 0.00428344)
(100.441 0.835287 -0.00337715)
(100.752 1.15422 -0.0199815)
(100.975 1.38967 -0.0316865)
(101.816 1.83716 -0.0730256)
(103.413 1.73268 -0.152158)
(105.172 -0.257753 -0.267448)
(104.717 -2.81674 -0.393054)
(102.952 -3.54761 -0.485124)
(101.758 -3.33866 -0.541171)
(101.142 -3.00197 -0.574746)
(100.808 -2.7208 -0.59468)
(100.61 -2.51216 -0.606567)
(100.476 -2.35786 -0.613495)
(100.379 -2.23233 -0.616559)
(100.279 -1.93515 -0.771114)
(100.245 -1.8984 -0.770778)
(100.222 -1.86934 -0.769315)
(100.209 -1.84609 -0.767468)
(100.201 -1.82537 -0.765265)
(100.197 -1.8058 -0.762568)
(100.195 -1.7874 -0.759308)
(100.195 -1.77036 -0.755508)
(100.196 -1.7548 -0.751263)
(100.197 -1.74079 -0.746733)
(100.199 -1.72843 -0.742126)
(100.201 -1.71774 -0.737679)
(100.203 -1.70864 -0.733615)
(100.204 -1.70093 -0.730193)
(100.206 -1.69426 -0.727678)
(100.208 -1.68815 -0.726373)
(100.212 -1.68197 -0.726623)
(100.218 -1.67513 -0.7288)
(100.232 -1.66761 -0.733201)
(100.004 0.0348464 0.00111344)
(100.02 0.0724718 0.00213893)
(100.049 0.116452 0.00274595)
(100.095 0.170945 0.00253997)
(100.163 0.24066 0.000923354)
(100.261 0.33121 -0.0030711)
(100.406 0.448596 -0.0110311)
(100.622 0.597023 -0.0255679)
(100.951 0.772554 -0.0509712)
(101.428 0.854711 -0.0934389)
(102.057 0.759216 -0.159219)
(102.721 0.241581 -0.251556)
(103.074 -0.723867 -0.360806)
(102.834 -1.54286 -0.473857)
(102.209 -1.85219 -0.566314)
(101.596 -1.86504 -0.631559)
(101.158 -1.78862 -0.675075)
(100.872 -1.69382 -0.704124)
(100.676 -1.60364 -0.723679)
(100.537 -1.52331 -0.736353)
(100.439 -1.45245 -0.743751)
(100.372 -1.38741 -0.746937)
(100.325 -1.33397 -0.748605)
(100.292 -1.28876 -0.74934)
(100.268 -1.25085 -0.748958)
(100.252 -1.21909 -0.747542)
(100.241 -1.19217 -0.745378)
(100.233 -1.16922 -0.74273)
(100.228 -1.14972 -0.739808)
(100.225 -1.13333 -0.7368)
(100.223 -1.11975 -0.733889)
(100.222 -1.10876 -0.731246)
(100.221 -1.10011 -0.729033)
(100.221 -1.09356 -0.727383)
(100.221 -1.08874 -0.726443)
(100.221 -1.08526 -0.726354)
(100.222 -1.08264 -0.727272)
(100.224 -1.08037 -0.729373)
(100.228 -1.07808 -0.732831)
(100.235 -1.07576 -0.737684)
(100.005 0.0220902 0.000611474)
(100.024 0.0458708 0.00101912)
(100.061 0.0736095 0.000819893)
(100.117 0.107648 -0.000496353)
(100.199 0.150504 -0.00373643)
(100.316 0.204603 -0.0099817)
(100.479 0.271282 -0.0209206)
(100.704 0.348073 -0.0390261)
(101.009 0.42223 -0.067716)
(101.403 0.45587 -0.111112)
(101.86 0.394117 -0.172888)
(102.284 0.163057 -0.253816)
(102.506 -0.249221 -0.347754)
(102.399 -0.670997 -0.44221)
(102.022 -0.911891 -0.524364)
(101.576 -0.974164 -0.587094)
(101.205 -0.951136 -0.632027)
(100.933 -0.903545 -0.66392)
(100.736 -0.853777 -0.686629)
(100.589 -0.80799 -0.702409)
(100.478 -0.768427 -0.712736)
(100.395 -0.737646 -0.718883)
(100.333 -0.715203 -0.722335)
(100.287 -0.698753 -0.723704)
(100.254 -0.6867 -0.723259)
(100.23 -0.677923 -0.721352)
(100.213 -0.671429 -0.718403)
(100.202 -0.66651 -0.714781)
(100.194 -0.662796 -0.710785)
(100.19 -0.660103 -0.706672)
(100.188 -0.658294 -0.702673)
(100.187 -0.657271 -0.698987)
(100.188 -0.656916 -0.695782)
(100.189 -0.657112 -0.693198)
(100.192 -0.657646 -0.691395)
(100.194 -0.65835 -0.690449)
(100.198 -0.659001 -0.690444)
(100.203 -0.65939 -0.691507)
(100.21 -0.65936 -0.693802)
(100.225 -0.658861 -0.697574)
(100.006 0.00756383 0.000356974)
(100.027 0.0156951 0.000500326)
(100.067 0.0251411 -0.00013584)
(100.128 0.0366615 -0.00194555)
(100.217 0.0510377 -0.00601276)
(100.341 0.0689206 -0.0132961)
(100.51 0.0902916 -0.0254943)
(100.735 0.1137 -0.044913)
(101.023 0.134045 -0.0746256)
(101.368 0.139287 -0.117426)
(101.737 0.109989 -0.175491)
(102.056 0.0259446 -0.24836)
(102.224 -0.110042 -0.331117)
(102.165 -0.251856 -0.414664)
(101.902 -0.342625 -0.489413)
(101.55 -0.372555 -0.54982)
(101.22 -0.369169 -0.595247)
(100.958 -0.355897 -0.628429)
(100.759 -0.341585 -0.652555)
(100.607 -0.328312 -0.669705)
(100.49 -0.316686 -0.681325)
(100.401 -0.307044 -0.688587)
(100.335 -0.298717 -0.692583)
(100.286 -0.291014 -0.694084)
(100.251 -0.283539 -0.69378)
(100.226 -0.276157 -0.692083)
(100.208 -0.268818 -0.689362)
(100.196 -0.261553 -0.685987)
(100.188 -0.254466 -0.682296)
(100.184 -0.247681 -0.678579)
(100.182 -0.241312 -0.675081)
(100.181 -0.235438 -0.671999)
(100.182 -0.230116 -0.669481)
(100.184 -0.225363 -0.667598)
(100.186 -0.221134 -0.666683)
(100.189 -0.217404 -0.666641)
(100.192 -0.214121 -0.667485)
(100.197 -0.211238 -0.669302)
(100.203 -0.208812 -0.672217)
(100.213 -0.207315 -0.676422)
(99.9938 0.00558991 0.0115312)
(99.9728 0.0113894 0.0239711)
(99.9337 0.0175227 0.0386692)
(99.8757 0.0239804 0.0571402)
(99.7974 0.030487 0.081058)
(99.6969 0.0363004 0.112417)
(99.5737 0.0398598 0.153366)
(99.43 0.0383863 0.206291)
(99.2743 0.0274872 0.273334)
(99.1246 0.00127405 0.355421)
(99.0111 -0.0457895 0.451274)
(98.9712 -0.11174 0.556228)
(99.0292 -0.179743 0.662187)
(99.1777 -0.23142 0.760638)
(99.3773 -0.257111 0.845124)
(99.5838 -0.265426 0.914614)
(99.7717 -0.264217 0.970812)
(99.9327 -0.258042 1.01601)
(100.066 -0.249971 1.0519)
(100.174 -0.242238 1.07985)
(100.26 -0.235545 1.10109)
(100.329 -0.229777 1.11715)
(100.383 -0.224866 1.12951)
(100.425 -0.22115 1.13904)
(100.459 -0.218532 1.14611)
(100.486 -0.216635 1.15098)
(100.508 -0.215216 1.1539)
(100.526 -0.214135 1.1553)
(100.539 -0.213266 1.15566)
(100.549 -0.212506 1.15537)
(100.557 -0.21181 1.15474)
(100.561 -0.211186 1.15407)
(100.564 -0.210662 1.15362)
(100.565 -0.210278 1.15352)
(100.566 -0.21008 1.15381)
(100.566 -0.210134 1.15438)
(100.566 -0.210501 1.15507)
(100.567 -0.211217 1.15562)
(100.571 -0.212334 1.15564)
(100.581 -0.213987 1.15456)
(99.994 0.016623 0.0112737)
(99.9734 0.0339157 0.0234716)
(99.9351 0.0523433 0.0379586)
(99.8777 0.0720216 0.0562423)
(99.7992 0.0923304 0.080054)
(99.6963 0.111326 0.111538)
(99.5665 0.124653 0.153177)
(99.4093 0.124114 0.207839)
(99.2301 0.0960502 0.278381)
(99.0456 0.0210441 0.366763)
(98.8937 -0.117248 0.472441)