/*--------------------------------*- C++ -*----------------------------------*\
| =========                 |                                                 |
| \\      /  F ield         | OpenFOAM: The Open Source CFD Toolbox           |
|  \\    /   O peration     | Version:  2306                                  |
|   \\  /    A nd           | Website:  www.openfoam.com                      |
|    \\/     M anipulation  |                                                 |
\*---------------------------------------------------------------------------*/
FoamFile
{
    version     2.0;
    format      ascii;
    arch        "LSB;label=32;scalar=64";
    class       volVectorField;
    location    "1.4";
    object      Force;
}
// * * * * * * * * * * * * * * * * * * * * * * * * * * * * * * * * * * * * * //

dimensions      [1 1 -2 0 0 0 0];

internalField   uniform (0 0 0);

boundaryField
{
    walls
    {
        type            calculated;
        value           uniform (0 0 0);
    }
    inlet
    {
        type            calculated;
        value           uniform (0 0 0);
    }
    outlet
    {
        type            calculated;
        value           uniform (0 0 0);
    }
    NASA
    {
        type            calculated;
        value           nonuniform List<vector> 
14179
(
(-0.0141205 -0.129917 9.21036e-06)
(-0.0125511 -0.103818 6.63219e-06)
(-0.0644817 -0.5216 0.000912503)
(-0.100756 -0.810292 0.00365497)
(-0.063541 -0.514517 0.000466657)
(-0.109706 -0.882164 0.00403834)
(0.217082 0.942224 -0.000379416)
(0.0923209 0.463499 -6.84979e-05)
(0.682991 3.34864 0.00363109)
(0.100826 0.506251 -7.66499e-05)
(0.00144437 0.00446753 -2.53655e-06)
(-0.0178684 -0.146238 0.000651286)
(0.130697 0.652724 -0.00271515)
(-0.0355742 -0.323407 0.00155903)
(0.0619652 0.309126 -0.00125395)
(1.37888 0.93016 0.00283548)
(1.38922 0.920765 -0.000439359)
(0.0242713 0.136501 -6.62365e-05)
(0.157064 0.932084 -0.000129845)
(1.25975 0.834991 -0.0039265)
(-0.0166815 -0.233512 -3.0529e-06)
(-0.0206892 -0.192457 -0.000106992)
(-0.0190889 -0.265121 -0.000213841)
(-0.00823336 -0.0600496 3.90873e-06)
(-0.0127179 -0.10525 2.56192e-05)
(-0.00890187 -0.0649255 2.07628e-05)
(-0.0128863 -0.106116 0.000473988)
(-0.0151595 -0.108606 0.000501064)
(-0.0132283 -0.120802 0.000539079)
(-0.0154604 -0.212159 0.00397999)
(0.0473141 0.206639 4.39289e-06)
(0.0534271 0.251952 -4.92168e-06)
(0.0574596 0.270963 -0.000100625)
(0.0466592 0.203247 -2.41289e-05)
(0.0691144 0.253584 -1.76084e-05)
(0.0663842 0.24347 -3.50979e-05)
(0.0353792 0.128393 -9.43222e-06)
(0.0335044 0.121543 -2.25148e-05)
(-0.00226493 -0.010745 0.00016334)
(-0.0128548 -0.0625573 0.00074902)
(0.170457 0.622474 -0.00210526)
(0.099715 0.359499 -0.00081295)
(0.0967136 0.48545 -9.0955e-05)
(-0.00558586 -0.0393679 3.90601e-06)
(-0.00510668 -0.0359747 1.029e-06)
(0.157162 0.789324 -0.000151812)
(-0.00987844 -0.0683556 0.00034807)
(0.0971331 0.484912 -0.00131694)
(0.0903111 0.451288 -0.00135654)
(0.108511 0.443372 -0.000384357)
(0.0848595 0.315466 -2.44756e-05)
(0.0845255 0.314231 -6.37811e-05)
(-0.0584562 1.42596 -0.000199321)
(1.38791 0.922805 -0.000762016)
(-0.0575134 1.41318 7.49864e-05)
(-0.00231933 1.12802 -0.000167781)
(0.0708005 1.07149 1.7535e-05)
(0.0670425 1.01372 -0.000202098)
(-0.00225717 1.11343 -1.75294e-05)
(0.0987189 0.388026 -4.33239e-05)
(0.158476 0.939792 -0.000238392)
(0.00721484 0.0262098 1.60837e-06)
(-0.0228182 0.567016 -0.00159342)
(0.910522 0.621424 0.0747063)
(-0.000732336 0.532775 -0.00179019)
(0.0268883 0.407898 -0.00125434)
(0.127222 0.744561 0.00573732)
(-0.0142688 -0.142825 1.2308e-05)
(-0.0140644 -0.129483 1.79697e-05)
(-0.0990833 -0.796954 0.00358915)
(-0.0110139 -0.0874181 6.29389e-06)
(-0.0125296 -0.103648 1.41295e-05)
(1.30807 0.866006 -0.00471391)
(1.25949 0.834102 -0.00432904)
(0.346459 2.05417 -0.0100919)
(0.261121 1.5426 -0.00697597)
(-0.111187 -0.895261 0.00262452)
(-0.0569097 -0.354133 0.00165927)
(-0.0560441 -0.351106 0.00168588)
(-0.0431997 -0.253361 0.00121032)
(0.157235 0.678095 -0.00323032)
(0.176777 0.764244 -0.00356429)
(0.763362 1.31065 -5.09359e-05)
(0.763772 1.30939 -0.000319884)
(0.0910131 0.456839 -8.10469e-05)
(0.0835205 0.401299 -4.74804e-05)
(0.000149629 -0.000557769 -9.92684e-07)
(0.00190752 0.0101168 -5.34063e-07)
(0.00194418 0.0103271 -2.73658e-06)
(0.000158718 -0.000495186 9.63135e-08)
(0.0995687 0.49992 -7.43248e-05)
(0.0994817 0.513176 -6.57401e-05)
(-0.0200712 -0.164026 0.000782205)
(-0.0135537 -0.0971442 0.000484476)
(-0.0204197 -0.145789 0.000693134)
(-0.0123878 -0.0854345 0.000453025)
(-0.0182089 -0.12488 0.000550148)
(0.0855515 0.426845 -0.00201616)
(-0.0200277 -0.182193 0.000851797)
(-0.0246533 -0.338542 0.00173097)
(-0.0207786 -0.291764 0.000767973)
(0.0802464 0.400752 -0.00186451)
(1.37594 0.924098 -0.00266945)
(0.100163 0.590525 -0.000102032)
(0.110395 0.617484 -4.6099e-05)
(0.11252 0.629071 -0.000107413)
(0.176141 1.22647 -0.000194922)
(0.0989912 0.587203 -9.02652e-05)
(0.156404 0.927914 -0.000146234)
(0.0256415 0.0242404 1.79229e-05)
(0.312658 -0.115216 0.00313589)
(0.334441 -0.132593 0.00157107)
(0.0112557 0.0107882 -2.92941e-05)
(-0.00705065 -0.0301649 0.000210579)
(0.0209199 0.0770937 -0.000305703)
(0.00170914 0.00567182 4.20668e-05)
(0.0208906 0.0840346 -0.000232813)
(-0.00983919 -0.0438784 0.000221525)
(-0.00221528 -0.0121422 0.000136149)
(0.00383623 0.0159147 -2.07128e-05)
(-0.0182773 -0.0883579 0.000413485)
(-0.00106506 0.730489 -0.00315145)
(0.0406711 0.607421 -0.00271002)
(-0.0015561 0.979605 -0.00429451)
(0.0316847 0.479534 -0.00245143)
(-0.034621 0.865636 -0.00392606)
(1.08894 0.732496 -0.00372633)
(-0.0469241 1.16073 -0.00504567)
(0.109409 0.64746 -0.00392716)
(0.156466 0.6127 -0.0030674)
(0.117499 0.459478 -0.0020684)
(0.108453 0.39571 -0.00176218)
(0.153502 0.5608 -0.00249853)
(0.0632574 0.228221 -0.0010144)
(0.0862549 0.311731 -0.00146048)
(-0.0128827 -0.145206 4.31049e-06)
(-0.0165706 -0.23164 2.61668e-05)
(-0.0100648 -0.0776043 5.86224e-06)
(-0.00808887 -0.0590011 7.18758e-06)
(0.000601722 0.00173887 0.529509)
(-0.0129423 -0.10181 0.000461355)
(0.000572028 0.00166107 0.503512)
(-0.0144 -0.109695 0.000507478)
(0.000887339 0.00202992 0.572917)
(-0.0129444 -0.12921 0.000641613)
(0.00113637 0.00247301 0.574134)
(-0.0120461 -0.138731 0.00147209)
(0.0532198 0.25096 -4.48136e-05)
(0.0396152 0.180184 -1.40681e-05)
(0.0399354 0.181663 -3.31539e-05)
(0.0468846 0.204199 -2.74506e-05)
(0.0461867 0.203439 -1.6212e-05)
(0.0464277 0.20452 -3.42037e-05)
(0.0681039 0.249767 -2.91906e-05)
(0.0244959 0.121855 -2.07062e-05)
(0.0219657 0.11147 -1.90262e-05)
(0.0349544 0.126795 -1.43945e-05)
(0.0306464 0.107843 -8.73623e-06)
(-0.00663232 -0.0303187 0.000286948)
(-0.00556045 -0.0264592 0.000306199)
(0.000447548 0.00135549 0.319003)
(0.000446396 0.00130695 0.312163)
(0.000435458 0.00127964 0.307959)
(0.000327425 0.00128363 0.354211)
(0.0942036 0.320992 -0.000472602)
(0.160729 0.56198 0.00241756)
(-5.26192e-06 0.00131483 0.334505)
(0.000361769 0.000699236 0.304069)
(0.000122146 0.000454128 0.10699)
(0.0823279 0.288982 -0.000630535)
(0.285591 0.663481 -9.72077e-06)
(0.168277 0.593276 4.87465e-05)
(0.166594 0.587388 -5.47512e-05)
(0.0802713 0.374931 -3.41236e-05)
(0.0807733 0.377312 -5.63108e-05)
(0.130846 0.625094 -6.42198e-05)
(0.0776728 0.345913 -4.81225e-05)
(0.0829124 0.37636 -3.03381e-05)
(0.0837392 0.380053 -5.38084e-05)
(0.0776789 0.34604 -2.27057e-05)
(-0.004113 -0.0292712 2.70488e-06)
(-0.00551597 -0.0388796 3.66727e-06)
(0.163166 0.864462 -8.39559e-05)
(0.261738 0.45143 0.00980361)
(0.00112921 0.00454687 0.855075)
(0.00034852 0.00238216 0.408663)
(0.0479053 0.139334 -0.000249423)
(-0.011851 -0.0739039 0.00042163)
(-0.0118346 -0.0746971 0.000567525)
(0.00102377 0.00277196 0.673016)
(0.000362927 0.000753991 0.309167)
(0.0961935 0.493701 -0.00035893)
(0.000563088 0.000805993 0.372818)
(0.139914 0.735353 0.00328044)
(0.000586374 0.00157824 0.345203)
(0.000436807 0.00135547 0.326526)
(-0.000284547 0.00109677 0.349267)
(7.0317e-05 0.000582612 0.112081)
(0.0805471 0.384726 -0.00119014)
(0.10321 0.479466 -0.000422311)
(0.000478697 0.000526218 0.204994)
(9.76448e-05 0.000669922 0.107389)
(0.169821 0.713663 -0.000147686)
(0.0848885 0.315573 -3.65172e-05)
(0.0809017 0.309704 -3.01569e-05)
(0.0966467 0.394009 -5.52425e-05)
(0.0677722 0.272976 -1.62352e-05)
(-0.862148 2.75619 -0.0211433)
(-0.0578847 1.41754 -8.07102e-05)
(-0.185414 1.73288 0.000752161)
(0.069456 1.04912 -0.000122128)
(0.0491768 1.05264 -6.57796e-05)
(-0.00226015 1.1136 -6.03723e-05)
(0.0262356 0.990888 -4.16897e-05)
(0.11691 1.28374 -0.000125918)
(0.146526 1.89274 -0.000123744)
(0.143889 1.85811 -0.000171674)
(0.117705 1.29295 -0.000109819)
(0.136135 1.39122 -0.000167569)
(0.143371 1.33455 -4.61371e-05)
(0.145917 1.35849 -0.000201908)
(0.134778 1.37701 -4.86438e-05)
(0.0677833 0.280926 -3.36621e-05)
(0.0623998 0.247642 -3.06341e-05)
(0.0989866 0.388997 -4.23808e-05)
(0.107799 0.730344 -0.000136227)
(0.106432 0.670373 -9.86211e-05)
(-0.00027847 0.00149 0.562204)
(0.000999427 0.00396719 0.88492)
(0.000848884 0.00248417 0.000132713)
(0.000468217 0.00408197 0.732198)
(0.00177124 0.00591106 0.000118575)
(0.000547611 0.0106273 0.273423)
(-0.0602544 0.578025 -0.00217764)
(0.00752283 4.65725e-05 1.73914)
(0.000404273 0.00106063 0.302467)
(0.014103 0.515432 -0.00179507)
(0.000787057 0.000517031 0.243762)
(0.0231021 0.483659 -0.00156546)
(0.061042 0.525201 -0.00179713)
(0.0607982 0.515622 -0.00174733)
(0.000399135 0.000858149 0.243076)
(0.000429677 0.000939731 0.267417)
(0.0572166 0.527893 -0.0016954)
(0.0519925 0.524521 -0.00139274)
(0.0470402 0.514786 -6.05191e-05)
(2.37655e-05 -9.57909e-05 0.22261)
(-0.0190431 -0.104533 0.0013791)
(0.000250222 0.00163432 0.499542)
(0.091533 0.509022 -0.00134221)
(0.000438335 0.00131595 0.317625)
(0.000440921 0.00132239 0.318996)
(0.484468 -0.193007 -0.00371458)
(0.227488 0.215091 0.00177615)
(0.000189393 0.000249102 0.0797232)
(-0.052328 -0.514523 0.00156329)
(-0.0683861 -0.552459 0.00168789)
(-0.054917 -0.539482 0.00208069)
(-0.0687677 -0.555493 0.00173306)
(-0.0739573 -0.596721 0.00231408)
(-0.0586798 -0.575934 0.00247224)
(-0.0824221 -0.664118 0.00286645)
(0.179551 0.777044 -0.00362501)
(0.448803 2.19752 -0.0100203)
(0.183074 0.792688 -0.00368504)
(0.428226 2.09622 -0.00959144)
(-0.0636345 -0.515141 0.000525215)
(-0.0425825 -0.265535 0.00122151)
(-0.105067 -0.844663 0.00382603)
(-0.0483647 -0.301144 0.0013905)
(1.38883 0.920598 -0.00105254)
(1.38899 0.92061 -0.000485994)
(0.234265 1.01688 -0.00052885)
(0.681127 3.34175 -0.00297508)
(0.609833 2.99163 -0.00168818)
(0.250866 1.08877 -0.000957055)
(0.404689 2.39927 -0.00142697)
(0.44069 2.61254 -0.00242683)
(0.00100203 0.00286015 -1.72787e-06)
(0.00145263 0.00503007 -2.51453e-06)
(0.02423 0.137363 -0.00012944)
(0.0246635 0.139309 -8.36146e-05)
(0.0474976 0.206 -0.00082614)
(0.0347467 0.157693 -0.000629439)
(0.0576301 0.250755 -0.00104677)
(0.0265102 0.119387 -0.000444116)
(-0.108862 -0.875983 0.00400518)
(-0.0694092 -0.504357 0.00231579)
(0.0155745 0.0726346 -0.000208678)
(-0.0118776 -0.0656297 0.000360892)
(0.0639769 0.233284 -0.00110737)
(0.0719438 0.262301 -0.00122173)
(0.0347856 0.125387 -0.000597283)
(0.0402202 0.14497 -0.000675939)
(0.292097 1.32113 -0.000567189)
(0.179143 0.777021 -0.000185755)
(0.331747 1.56821 -0.000725806)
(0.144124 0.723265 -0.000205192)
(-0.0182164 -0.153433 0.000191909)
(-0.0408815 -0.303411 0.000374162)
(-0.00665728 -0.0487144 -5.11551e-06)
(0.00219647 0.00840476 -5.84255e-06)
(-0.0166762 -0.114791 5.37058e-05)
(-0.0221049 -0.155445 0.000104725)
(0.0974753 0.398595 8.91366e-05)
(0.0842842 0.313382 -0.00014625)
(0.0844061 0.3138 -8.79565e-05)
(0.109028 0.44737 -0.00080087)
(0.166653 0.732123 -0.000316574)
(0.143377 0.660848 -0.000176315)
(0.174109 0.765509 -0.000354269)
(0.183594 0.856306 -0.000200132)
(-0.00238933 1.13285 -0.00018467)
(0.0745953 1.12741 -0.000549509)
(-0.00258273 1.18608 -0.000463969)
(0.0686905 1.03858 -0.000264564)
(-0.0584648 1.42679 -0.000227379)
(1.38903 0.921881 -0.000458431)
(-0.059655 1.4555 -0.00055978)
(0.493185 4.23093 -0.00256656)
(0.0923145 0.362812 -0.000107063)
(0.0837707 0.329001 -0.000163292)
(0.0694831 0.254671 -0.000115342)
(0.0682271 0.250239 -4.96868e-05)
(0.0582678 0.305558 -0.000185648)
(0.186809 0.922214 -0.00132823)
(0.0234024 0.130747 -9.51251e-05)
(0.048948 0.262797 -0.000126925)
(0.756379 4.73334 0.00117162)
(0.354735 2.37019 2.13662e-05)
(0.033767 0.122396 -5.38718e-05)
(0.033882 0.122905 -2.70731e-05)
(1.24127 0.824645 -0.00284715)
(0.0898688 0.622224 -0.00285681)
(0.248969 0.233527 -0.00106464)
(0.497152 -0.206138 0.000422191)
(0.235774 0.221839 -0.00109145)
(0.518858 -0.215507 0.000174986)
(0.0664972 0.243849 -3.38949e-05)
(0.0287094 0.100986 -2.1178e-05)
(0.0339012 0.122971 -1.66619e-05)
(0.285459 0.6632 -3.24356e-05)
(0.275643 0.809196 -0.000126354)
(0.000927611 0.0030839 0.72441)
(0.000379168 0.00165355 0.360555)
(0.000560217 0.000832244 0.381979)
(-0.188291 1.74474 -0.000248163)
(-0.0584352 1.42759 -0.000104537)
(1.38401 0.923565 -0.00143046)
(0.0266851 0.0252157 1.31453e-05)
(0.339374 -0.139486 0.000124276)
(0.338298 -0.137539 0.000539664)
(0.0227652 0.0214651 2.1526e-06)
(0.000565033 0.00193327 0.540671)
(0.000436702 0.000996568 0.378024)
(0.000401092 0.00108821 0.339681)
(0.000609333 0.00162699 0.361961)
(-0.0899168 -0.723866 0.00321634)
(1.34332 0.889436 -0.00484615)
(1.32823 0.879419 -0.00479232)
(1.30462 0.863741 -0.0047025)
(1.32671 0.8784 -0.00478781)
(0.39875 1.95088 -0.00895049)
(0.176337 0.762539 -0.00356266)
(0.178262 0.77134 -0.0036004)
(0.420576 2.0586 -0.0094306)
(0.270327 1.59723 -0.00726449)
(0.289223 1.70919 -0.00773312)
(-0.0247981 -0.146511 0.000689492)
(-0.031632 -0.186046 0.000875604)
(-0.0557937 -0.347039 0.00161633)
(-0.0504028 -0.313696 0.00145177)
(-0.0413223 -0.242265 0.0011491)
(-0.0341773 -0.200772 0.000946526)
(0.253472 2.15633 -0.00965664)
(0.240342 2.04378 -0.00923942)
(0.0241389 0.0890693 -0.000364486)
(0.0224853 0.0907976 -0.000405579)
(0.0339852 0.138115 -0.000379513)
(0.0321669 0.118935 -0.000512679)
(0.00120017 0.00406344 5.28497e-05)
(0.0246686 0.105211 -0.000329924)
(0.0339608 0.146471 -0.000550527)
(0.0195715 0.0866543 -0.000254325)
(0.0401129 0.1485 -0.000656251)
(0.0439687 0.179235 -0.00054076)
(0.0344282 0.127349 -0.000553914)
(0.0425615 0.635388 -0.0028218)
(-0.00164116 1.02321 -0.00448545)
(-0.0018343 1.12836 -0.00494406)
(0.0469156 0.700662 -0.0031165)
(-0.0543419 1.343 -0.00584377)
(1.2947 0.857134 -0.00465738)
(-0.0568362 1.40426 -0.0061131)
(-0.048771 1.20611 -0.00524647)
(-0.0531312 1.31327 -0.00571506)
(1.29101 0.854677 -0.00464388)
(-0.00188897 1.15698 -0.00506837)
(0.0512606 0.766677 -0.00340197)
(-0.00199664 1.21322 -0.00531643)
(0.0482452 0.721004 -0.00317803)
(0.226678 1.34005 -0.00586082)
(0.411685 2.56005 -0.0137237)
(0.237693 1.58335 -0.00718475)
(0.247633 1.46204 -0.00672149)
(0.405339 2.52786 -0.011388)
(0.377772 2.35508 -0.0108413)
(0.196036 1.30309 -0.00718528)
(-0.0813463 -0.597287 0.0022963)
(-0.101995 -0.820677 0.00384172)
(-0.0668035 -0.443468 0.00205392)
(-0.05705 -0.355486 0.00168587)
(-0.0801772 -0.537519 0.0023965)
(-0.0533037 -0.332913 0.00161223)
(-0.0248237 -0.138054 0.000691305)
(-0.0450374 -0.264559 0.00128819)
(0.0021385 0.00417146 0.000204397)
(-0.0476601 -0.281189 0.00139385)
(0.231797 1.04152 -0.00508161)
(0.180074 0.778075 -0.00360697)
(0.238801 1.12529 -0.00518789)
(0.178203 0.770218 -0.00357928)
(0.226164 1.01965 -0.00472473)
(0.241744 1.13846 -0.00566085)
(0.368684 1.80198 -0.00846469)
(0.105564 0.412725 -0.00187146)
(0.0896889 0.350579 -0.00162176)
(0.0955233 0.348434 -0.00157015)
(0.0756447 0.275801 -0.00127497)
(0.0871435 0.34066 -0.00158948)
(0.0812377 0.317641 -0.00149779)
(0.055576 0.200445 -0.000900609)
(0.0427609 0.154133 -0.000712639)
(0.119706 0.277458 -0.00123358)
(0.101166 0.234376 -0.0010032)
(-0.0207125 -0.156967 0.000755349)
(-0.0182721 -0.130672 0.000633056)
(0.0811275 0.41467 -0.00219089)
(0.0858036 0.428288 -0.00193407)
(0.123899 0.654123 -0.00360302)
(-0.0191962 -0.189712 0.000818418)
(-0.0198338 -0.180832 0.000850409)
(-0.0171108 -0.188293 0.00056538)
(-0.0211171 -0.292818 0.00129135)
(0.0770669 0.368839 -0.00182842)
(0.0816733 0.407732 -0.00183134)
(-0.00475118 -0.0199469 0.000140884)
(0.00520167 0.0198799 2.10795e-05)
(-0.00150598 -0.00655251 9.65766e-05)
(0.0118899 0.0435053 -0.000126882)
(0.0175827 0.645348 -0.00281528)
(-0.0012822 0.844658 -0.00369987)
(0.0267614 0.564525 -0.00254429)
(0.0359761 0.538394 -0.00246679)
(-0.104385 0.992471 -0.00568075)
(-0.0409331 1.01537 -0.00445896)
(1.20565 0.805172 -0.00126342)
(-0.450375 1.46584 -0.00588733)
(-0.0447947 1.109 -0.00483672)
(-0.139482 1.29835 -0.00555454)
(-0.0121446 -0.0634311 0.000349893)
(-0.00906412 -0.0465933 0.000267882)
(-0.0108599 -0.0555846 0.000313789)
(-0.0103459 -0.0542335 0.000304462)
(-0.0249279 -0.136809 0.000554847)
(0.000869367 0.00196205 0.385279)
(0.0583295 0.392441 -0.00179178)
(0.0917776 0.635598 -0.00300456)
(0.0602856 0.405308 -0.00190854)
(0.126166 0.460495 -0.00203063)
(0.153715 0.561344 -0.00247652)
(0.0728677 0.262978 -0.00115643)
(0.0620171 0.216959 -0.000963878)
(0.0813808 0.285216 -0.00144291)
(0.0892358 0.322254 -0.00143364)
(0.455222 -0.190238 -0.00242697)
(0.212611 0.195249 -4.28111e-05)
(0.260168 0.24199 -0.000903469)
(0.526317 -0.219577 -0.000653913)
(0.222531 0.964665 -0.00434417)
(0.580827 2.84656 -0.0125445)
(0.228108 0.988974 -0.00438187)
(0.554993 2.71973 -0.0121131)
(-0.0640747 -0.518458 0.000751458)
(0.000209542 -0.00197785 5.19825e-06)
(0.000552903 0.000138148 1.35933e-06)
(0.241974 1.04971 -0.00152484)
(0.612276 3.00249 -0.00520543)
(0.230059 0.99779 -0.0017267)
(-0.0613022 -0.44565 0.00201799)
(0.179388 0.789108 -0.000656789)
(0.146166 0.6748 -0.000645923)
(0.179574 0.78998 -0.000757727)
(0.14608 0.674336 -0.000565762)
(0.0667599 0.244637 -0.000181601)
(0.0634878 0.232598 -0.000140927)
(-0.0316942 -0.232717 0.000214662)
(0.166113 0.822444 -0.000784989)
(0.0657644 0.346007 -0.000329417)
(0.0341774 0.123855 -9.15921e-05)
(0.0325054 0.117769 -6.83916e-05)
(1.38951 0.92105 -0.000395921)
(0.0208725 0.0195878 -7.88095e-06)
(0.349291 -0.144972 6.59508e-06)
(0.0234196 0.0219848 -1.05774e-05)
(0.344275 -0.142826 -4.0818e-07)
(-0.0209808 -0.132508 0.000587854)
(-0.0235581 -0.14838 0.000664955)
(-0.0404953 -0.252681 0.00116086)
(-0.0949073 -0.763658 0.00342166)
(-0.0353965 -0.221284 0.00101193)
(0.184839 0.80048 -0.00371743)
(0.196515 0.851812 -0.00393871)
(0.100695 0.440695 -0.00195195)
(0.0754924 0.346516 -0.00152936)
(0.104301 0.456594 -0.00202542)
(0.0720865 0.330744 -0.00145565)
(0.0417408 0.190204 -0.000791117)
(0.0662282 0.288707 -0.00122987)
(0.0731408 0.319201 -0.00137736)
(0.0476208 0.217479 -0.000924062)
(0.0580559 0.212365 -0.00103589)
(0.0564443 0.206333 -0.00100661)
(0.0621865 0.226781 -0.00108207)
(0.0583107 0.212743 -0.00102624)
(0.0131977 0.0673267 -0.00027412)
(0.0664926 0.326154 -0.0014186)
(-0.0688603 -0.500238 0.00229185)
(0.0230986 0.110298 -0.000398997)
(-0.00809553 -0.045437 0.000259113)
(0.0301983 0.145716 -0.000572389)
(0.0314855 0.113903 -0.000561679)
(0.0301165 0.108866 -0.000536989)
(0.0335682 0.121011 -0.000580004)
(0.0309697 0.111696 -0.000542785)
(1.30686 0.865199 -0.00470696)
(1.27326 0.842956 -0.00450821)
(0.128479 0.121021 -0.000630565)
(0.363512 -0.150932 0.000414686)
(0.373549 -0.155098 0.000427891)
(0.116441 0.10967 -0.000575247)
(0.474424 -0.196739 0.000490926)
(0.219261 0.206503 -0.00104123)
(0.205107 0.193237 -0.000981212)
(0.454862 -0.188733 0.000486017)
(0.000155592 -0.00729688 1.38414e-05)
(8.31056e-05 -0.0125578 3.21396e-05)
(-0.0514495 -0.506097 0.00128212)
(-7.2192e-05 -0.0238856 7.37452e-05)
(-6.79921e-05 -0.0236 5.98214e-05)
(-0.0665684 -0.538068 0.00137195)
(-0.0536178 -0.526923 0.00187063)
(-3.8996e-05 -0.0214193 8.57158e-05)
(-6.32511e-05 -0.0231887 8.38442e-05)
(-0.0707848 -0.571494 0.00201285)
(-0.0711806 -0.574641 0.00205146)
(-1.53026e-05 -0.0195716 8.86669e-05)
(-0.0574199 -0.56373 0.002335)
(-0.000252106 -0.0369558 0.000155756)
(-0.0790775 -0.63748 0.00265493)
(1.36632 0.90482 -0.00480329)
(1.36299 0.90258 -0.00483851)
(1.35898 0.89989 -0.00486485)
(1.36458 0.903629 -0.00484943)
(0.206191 0.89408 -0.00403837)
(0.525338 2.57452 -0.0115878)
(0.544216 2.66703 -0.0119043)
(0.190943 0.827929 -0.00378109)
(0.180371 0.780716 -0.00363773)
(0.237418 1.07132 -0.00495442)
(0.268151 1.2649 -0.00579373)
(0.442275 2.16539 -0.00988515)
(0.181862 0.787303 -0.00366395)
(0.24479 1.10499 -0.00509206)
(0.257494 1.21428 -0.00558142)
(0.434752 2.12836 -0.00973425)
(1.38604 0.918698 -0.00209749)
(1.3854 0.91831 -0.0016671)
(1.3889 0.920636 -0.00113733)
(1.38694 0.91934 -0.00160226)
(0.431396 2.5577 -0.0026949)
(0.457561 2.7119 -0.00377589)
(0.000916362 0.00236375 -1.56471e-06)
(-0.0639173 -0.517246 0.000693769)
(0.000698088 0.00103272 8.29442e-08)
(0.0234527 0.132871 -0.000235849)
(0.0238128 0.134968 -0.000199218)
(0.0241548 0.136955 -0.000143973)
(0.0239713 0.135892 -0.00018631)
(0.239025 1.03742 -0.00104545)
(0.246226 1.06825 -0.00141143)
(0.659561 3.23515 -0.0044752)
(-0.0556319 -0.369621 0.00168457)
(-0.0444148 -0.27682 0.00127481)
(-0.0648856 -0.471478 0.00214408)
(-0.0464629 -0.289431 0.00133471)
(-0.0603954 -0.400961 0.00183544)
(0.417101 3.57095 -0.00302009)
(0.433425 3.71064 -0.0026343)
(0.0842677 0.313326 -0.000167313)
(0.109114 0.447758 0.000327134)
(0.109265 0.448403 -0.00091145)
(0.0842254 0.313194 -0.000227218)
(0.142419 0.656728 -0.000433871)
(0.17774 0.781668 -0.000459677)
(0.178903 0.786913 -0.000560354)
(0.14549 0.671436 -0.000484311)
(0.109274 0.448445 0.000214147)
(0.0841597 0.312978 -0.000307419)
(0.109273 0.448452 -0.00102339)
(0.084213 0.313157 -0.000249615)
(0.0758595 1.14749 -0.00059966)
(-0.00260059 1.18993 -0.000540538)
(-0.00283818 1.28483 -0.000842066)
(0.0805 1.21797 -0.000879993)
(-0.0638215 1.55528 -0.00111509)
(1.38867 0.920465 -0.000825064)
(-0.066484 1.62001 -0.00148146)
(-0.0598528 1.45996 -0.000657406)
(-0.0623635 1.52002 -0.000985919)
(1.38842 0.920279 -0.000727235)
(-0.0029448 1.32973 -0.000953438)
(0.0780094 1.18042 -0.00112559)
(-0.00309507 1.39011 -0.00129301)
(0.081196 1.22854 -0.000958728)
(0.315883 1.42916 -0.000732099)
(0.243418 1.05649 -0.000675558)
(0.658983 3.23301 -0.00242397)
(0.40841 1.93094 -0.00170063)
(0.345821 1.63522 -0.000835319)
(0.634877 3.11467 -0.00208226)
(0.249097 1.08107 -0.000818085)
(0.362199 1.6385 -0.00142958)
(0.0817026 0.320812 -0.00017695)
(0.0763293 0.299672 -0.00020801)
(0.0662231 0.242648 -0.000119853)
(0.0630615 0.231037 -0.000130922)
(0.0743765 0.291996 -0.000217489)
(0.658692 4.12095 -0.00278868)
(0.424514 2.51643 -0.00177223)
(0.66844 4.18274 -0.00299335)
(0.392499 2.62493 -0.00219849)
(0.403589 2.69851 -0.00192989)
(0.443043 2.6265 -0.00207934)
(-0.0298779 -0.220098 0.000135893)
(-0.0179877 -0.122176 0.000114606)
(0.00112394 0.00353064 -2.09529e-06)
(-0.0172358 -0.117846 7.3299e-05)
(0.00116347 0.00359298 -1.61445e-06)
(0.0649932 0.341402 -0.000203524)
(0.163593 0.809079 -0.000483184)
(0.166009 0.821583 -0.000589804)
(0.0501882 0.27058 -0.000256908)
(0.0243227 0.137828 -0.000114324)
(0.0501763 0.269991 -0.000163426)
(0.0243502 0.13782 -9.80464e-05)
(0.0323653 0.117273 -5.53858e-05)
(0.0321337 0.116424 -6.2309e-05)
(0.0661765 0.241287 -0.00113952)
(0.0686425 0.250262 -0.00117462)
(0.0322186 0.112598 -0.000537733)
(0.0362841 0.130783 -0.000619127)
(0.0381496 0.13333 -0.00062134)
(0.0379808 0.136893 -0.000643388)
(0.275488 0.808907 -0.000350969)
(0.275566 0.809003 -0.000209538)
(0.285635 0.663763 -0.000227302)
(0.285662 0.663798 -0.000187466)
(-0.188155 1.7431 -0.000309374)
(-0.0585502 1.42966 -0.000371839)
(1.38956 0.921437 -0.000392758)
(-0.833359 2.70976 -0.000889683)
(-0.0591611 1.44405 -0.000467169)
(-0.189583 1.75483 -0.00064588)
(0.0711988 0.26104 -9.89475e-05)
(0.0709178 0.260082 -7.40612e-05)
(0.0347798 0.1261 -4.539e-05)
(0.0273001 0.0959432 -4.06928e-05)
(0.0285093 0.100265 -2.56629e-05)
(0.0346811 0.125772 -3.47024e-05)
(0.417483 2.47043 -0.0109622)
(0.385967 2.28365 -0.0102222)
(-0.000165685 -0.00398714 3.0864e-05)
(-0.00307703 -0.0208363 0.000106905)
(-0.0279865 -0.175652 0.000795749)
(-0.0246952 -0.155384 0.0006982)
(-0.00808069 -0.0497899 0.000239614)
(-0.00438155 -0.0283858 0.000141015)
(1.34224 0.888732 -0.00484156)
(1.35248 0.895541 -0.00486718)
(1.35986 0.900464 -0.00487037)
(1.35328 0.896076 -0.00486759)
(-0.0223343 -0.132256 0.000622967)
(-0.0165115 -0.0985701 0.000465382)
(0.349013 2.06388 -0.00926021)
(0.37498 2.21837 -0.00994345)
(-0.0934208 -0.751805 0.00336205)
(-0.0294503 -0.184667 0.000838239)
(-0.0336225 -0.210361 0.000960461)
(-0.00976095 -0.0595123 0.000284177)
(-0.0144573 -0.0866853 0.000410323)
(0.199947 0.866791 -0.00398571)
(0.51522 2.52481 -0.0114061)
(0.192234 0.833453 -0.00381249)
(0.480338 2.35308 -0.01069)
(0.283165 2.40988 -0.0108069)
(0.291527 2.48146 -0.011136)
(0.0644508 0.263466 -0.000834645)
(0.0522301 0.193593 -0.0008704)
(0.0550555 0.204108 -0.000919412)
(0.0605108 0.247263 -0.00141206)
(0.0956798 0.418585 -0.00184876)
(0.0634907 0.290957 -0.00127088)
(0.0912513 0.399063 -0.00175644)
(0.0675614 0.309796 -0.00135945)
(0.0583772 0.216471 -0.000976633)
(0.055997 0.207612 -0.000936097)
(0.0692632 0.28326 -0.00090124)
(-0.00231845 1.37584 -0.00602422)
(0.0575577 0.86143 -0.00381644)
(0.0588682 0.88117 -0.00390158)
(-0.00226307 1.34881 -0.0059074)
(-0.0640908 1.58214 -0.00688102)
(1.33912 0.886642 -0.00483172)
(-0.0648279 1.60006 -0.00695604)
(-0.00233773 1.38515 -0.00606204)
(0.0603437 0.903434 -0.00399507)
(-0.00237083 1.39831 -0.00611623)
(0.0593031 0.887726 -0.00392944)
(-0.0636546 1.57146 -0.00683762)
(1.33593 0.88453 -0.00482041)
(-0.0624481 1.54192 -0.00671039)
(0.317311 2.70173 -0.0120698)
(0.311405 2.65122 -0.0118549)
(0.0419017 0.155159 -0.000688345)
(0.0461713 0.171047 -0.000763961)
(0.0540109 0.220534 -0.0012515)
(0.0510214 0.189096 -0.000849263)
(0.0587014 0.239822 -0.000753965)
(0.0476103 0.176401 -0.000789083)
(0.0797778 0.34847 -0.00151788)
(0.0581038 0.266024 -0.00115434)
(0.0850265 0.371618 -0.00162782)
(0.0533518 0.244023 -0.00105003)
(-0.0575143 1.42084 -0.00618719)
(-0.0597799 1.47653 -0.0064269)
(1.31521 0.870762 -0.00474319)
(0.0521056 0.779422 -0.00345936)
(-0.00203103 1.22931 -0.00538877)
(-0.00213557 1.28498 -0.00562965)
(0.0544496 0.814647 -0.0036136)
(-0.00216742 1.30125 -0.00570074)
(0.056994 0.852923 -0.00378045)
(0.055248 0.826657 -0.00366487)
(-0.00223816 1.33716 -0.00585878)
(-0.060446 1.49287 -0.00649797)
(1.31905 0.873315 -0.00475638)
(-0.0619607 1.53001 -0.0066612)
(0.0758772 0.297201 -0.00141681)
(0.0760739 0.29784 -0.00142085)
(0.0559235 0.204245 -0.000994764)
(0.0560871 0.204981 -0.00100012)
(0.0762924 0.299008 -0.00142353)
(0.241899 1.14017 -0.00526027)
(0.405807 1.98576 -0.00913573)
(0.227453 1.02568 -0.00475651)
(0.176412 0.763039 -0.00357195)
(0.177443 0.767659 -0.00358856)
(0.234538 1.05818 -0.00489809)
(0.413778 2.02511 -0.00928145)
(0.253364 1.19468 -0.00549821)
(0.077441 0.302956 -0.00144091)
(0.0770632 0.301527 -0.00143567)
(0.0760843 0.297834 -0.0014207)
(0.0559988 0.204474 -0.000995113)
(0.0575035 0.209837 -0.00101511)
(0.263808 1.75733 -0.00793617)
(0.420225 2.62111 -0.0118639)
(0.276509 1.63381 -0.00740839)
(0.283207 1.67353 -0.00758482)
(0.451127 2.81434 -0.0127059)
(0.441357 2.75333 -0.0124428)
(0.270581 1.8026 -0.00812438)
(-0.00240393 -0.015792 0.000101943)
(-0.0269089 -0.158724 0.000746648)
(0.050094 0.244665 -0.00104013)
(0.00508234 0.0244044 -7.42078e-05)
(-0.0293649 -0.172932 0.000813501)
(-0.010109 -0.0576815 0.000297983)
(-0.0660484 -0.438293 0.00202287)
(-0.054063 -0.336285 0.00156259)
(-0.0660515 -0.479873 0.00218666)
(-0.0522878 -0.325314 0.00150701)
(-0.0619999 -0.411526 0.00188783)
(0.462386 2.88477 -0.0130116)
(0.471634 2.94264 -0.0132583)
(0.294037 1.95941 -0.0087983)
(0.288105 1.91975 -0.00862858)
(-0.0219775 -0.122362 0.000608826)
(-0.0389292 -0.228319 0.00107887)
(0.0434401 0.211596 -0.000884748)
(0.00177377 0.00690248 7.80177e-06)
(0.0371846 0.180489 -0.000739041)
(-0.0365291 -0.214393 0.0010107)
(-0.0131377 -0.0741502 0.000375686)
(0.0294736 0.106427 -0.000523782)
(0.0297972 0.107683 -0.00053119)
(0.0295002 0.106495 -0.000523504)
(0.0304267 0.10976 -0.000535338)
(0.116106 0.339917 -0.00150696)
(0.141799 0.415355 -0.00187617)
(0.188888 0.43814 -0.00203764)
(0.183569 0.425792 -0.0019785)
(0.156327 0.362549 -0.00167271)
(0.164425 0.381356 -0.00176716)
(0.148749 0.435766 -0.00197523)
(-0.594821 1.9374 -0.00805504)
(1.30136 0.861546 -0.00468197)
(-0.0561068 1.38636 -0.00603469)
(-0.167402 1.55728 -0.00670359)
(-0.567293 1.84791 -0.00774267)
(-0.498083 1.62189 -0.00664816)
(-0.516009 1.68061 -0.00699277)
(-0.144724 1.34708 -0.00579475)
(-0.0502809 1.24323 -0.00540587)
(1.28363 0.84977 -0.0045928)
(-0.550129 1.79214 -0.00745613)
(0.0877094 0.319857 -0.00144956)
(0.0808469 0.294809 -0.00135245)
(0.141757 0.133542 -0.000691489)
(0.399267 -0.165778 0.000460886)
(0.38573 -0.160155 0.000443777)
(0.155516 0.146515 -0.000752566)
(0.0543149 0.189957 -0.000851035)
(0.0506821 0.18274 -0.000826116)
(0.0461509 0.166377 -0.000762374)
(0.0409 0.14295 -0.000659799)
(0.186493 0.175717 -0.000895249)
(0.415916 -0.172681 0.000471038)
(0.433523 -0.179954 0.000483319)
(0.171211 0.161315 -0.000822752)
(0.630363 3.0913 -0.00563597)
(0.227777 0.987844 -0.0017944)
(0.248161 1.0765 -0.00228763)
(0.635666 3.1177 -0.00667639)
(0.187162 0.811736 -0.00274097)
(0.700246 3.43313 -0.0109117)
(0.241368 1.04662 -0.00335059)
(0.645791 3.16588 -0.0106052)
(0.24467 1.06105 -0.0043482)
(0.689835 3.38161 -0.0133695)
(0.237519 1.03003 -0.00406341)
(0.633617 3.10587 -0.0126694)
(-0.0643543 -0.520618 0.000860568)
(-0.0323475 -0.237235 0.000418704)
(-0.0470458 -0.342903 0.00149181)
(-0.0599522 -0.435919 0.00197081)
(-0.0977097 -0.786003 0.0035336)
(-0.0519751 -0.511142 0.00144764)
(-0.00525135 -0.158663 0.000480261)
(-0.00522202 -0.157854 0.000437532)
(7.9358e-05 -0.0127989 4.06894e-05)
(7.3465e-05 -0.0132541 3.4667e-05)
(9.35378e-06 -0.00321327 7.75754e-06)
(-0.0652759 -0.527861 0.00112116)
(-0.000522989 -0.00649866 1.624e-05)