/*--------------------------------*- C++ -*----------------------------------*\
| =========                 |                                                 |
| \\      /  F ield         | OpenFOAM: The Open Source CFD Toolbox           |
|  \\    /   O peration     | Version:  2306                                  |
|   \\  /    A nd           | Website:  www.openfoam.com                      |
|    \\/     M anipulation  |                                                 |
\*---------------------------------------------------------------------------*/
FoamFile
{
    version     2.0;
    format      ascii;
    arch        "LSB;label=32;scalar=64";
    class       volScalarField;
    location    "1.4";
    object      p;
}
// * * * * * * * * * * * * * * * * * * * * * * * * * * * * * * * * * * * * * //

dimensions      [0 2 -2 0 0 0 0];

internalField   nonuniform List<scalar> 
111542
(
60.2423
61.5999
64.8203
70.067
77.4161
87.0796
99.2148
113.844
130.459
147.61
162.705
171.7
170.538
158.064
137.397
114.285
92.6944
74.0852
58.5675
45.9927
36.0031
28.3032
22.5144
18.1267
14.8027
12.2624
10.2216
8.64303
7.47256
6.57848
5.87408
5.30023
4.86689
4.50176
4.15168
3.77359
3.31329
2.76488
2.02598
1.0022
59.1616
60.4791
63.6656
68.8474
76.1826
85.9883
98.6345
114.366
133.006
153.458
172.985
186.01
184.9
168.391
142.351
115.448
91.8478
72.1905
56.2165
43.5628
33.7962
26.4132
20.8915
16.8399
13.8072
11.4571
9.61625
8.2005
7.11977
6.27811
5.60857
5.06876
4.63204
4.25663
3.90127
3.52715
3.08996
2.54392
1.81709
0.849163
57.0224
58.2716
61.3109
66.3013
73.5114
83.4517
96.8336
114.462
136.996
164.265
192.906
214.236
214.042
188.34
151.896
118.518
91.1397
69.3933
52.4993
39.6325
30.0787
23.3162
18.473
14.9498
12.0995
9.78305
8.03134
6.7562
5.81748
5.11123
4.57467
4.16449
3.84417
3.57944
3.33394
3.07071
2.74463
2.29904
1.65823
0.739004
53.8797
54.9984
57.7344
62.2944
69.0594
78.7576
92.5393
112.106
139.873
179.105
214.376
257.08
262.655
221.594
168.985
128.055
94.8862
69.7054
51.1739
37.5935
23.701
17.3718
14.7751
13.2573
11.2207
9.14264
7.49657
6.26838
5.31987
4.57068
3.98281
3.52423
3.16348
2.86897
2.61072
2.3566
2.06144
1.66337
1.06663
0.143368
49.8483
50.7526
52.9767
56.7432
62.4871
71.0544
83.8914
103.425
133.689
178.688
255.85
342.368
366.587
258.98
173.56
123.832
84.2354
57.5658
39.8714
28.3483
20.6814
6.21112
5.54687
6.15035
5.48663
4.62189
4.00302
3.54789
3.16966
2.85512
2.60493
2.40889
2.25416
2.12495
2.00834
1.887
1.73013
1.48441
1.03327
0.0914996
45.1304
45.7289
47.2095
49.7549
53.7368
59.8891
69.5414
85.1464
111.464
166.283
260.103
455.306
622.014
251.576
176.281
115.279
68.0209
41.6716
26.0242
16.4535
12.2566
11.5242
11.2323
7.12472
4.17761
2.76622
2.03231
1.51992
1.13667
0.874027
0.709178
0.612159
0.56037
0.538639
0.535204
0.538805
0.537244
0.521515
0.508892
0.662601
40.027
40.2459
40.7925
41.7499
43.2943
45.7607
49.7265
56.1632
66.7365
105.993
181.314
410.439
1953.64
-411.133
209.432
76.2985
31.5314
16.715
8.5388
-0.931789
-6.83446
15.817
15.1092
9.43415
5.94026
4.45477
3.69227
3.12222
2.67561
2.35406
2.13171
1.97526
1.86297
1.77973
1.71582
1.66368
1.60938
1.54646
1.47285
1.41436
34.9194
34.7285
34.2603
33.4724
32.291
30.5373
27.7973
23.1039
14.026
15.874
-2.07391
-166.825
-1014.21
-1045.53
-313.486
-101.881
-46.0732
-25.4186
-16.1731
-9.92939
-3.00145
-7.83563
-6.22692
-4.77616
-3.92904
-3.01594
-2.11283
-1.37109
-0.784761
-0.302421
0.104966
0.448858
0.73711
0.975331
1.16707
1.31124
1.39357
1.38442
1.21912
0.770613
30.2131
29.6473
28.225
25.8074
22.1219
16.6065
8.23139
-4.91033
-26.4735
-50.1786
-124.716
-270.629
-481.581
-508.524
-321.532
-175.622
-100.495
-60.9785
-38.8765
-24.9238
-15.0338
-8.5734
-4.56501
-1.70262
0.0243386
1.09114
1.83679
2.36097
2.71001
2.93555
3.07882
3.16429
3.20492
3.20648
3.16808
3.0825
2.9263
2.65194
2.16641
1.2817
26.3224
25.4348
23.2354
19.5158
13.8922
5.63635
-6.46132
-24.377
-51.4029
-93.1639
-151.515
-224.705
-290.191
-297.798
-239.455
-165.802
-110.209
-74.557
-51.4401
-35.4372
-24.1452
-16.7072
-11.7226
-8.17571
-5.66521
-3.87096
-2.51426
-1.45014
-0.611972
0.0494549
0.576162
0.997929
1.33201
1.58667
1.76075
1.84797
1.82608
1.65405
1.2734
0.637782
23.5501
22.4404
19.7047
15.1108
8.2351
-1.64987
-15.649
-35.2528
-62.3211
-98.6973
-144.288
-193.779
-232.244
-239.002
-208.09
-158.874
-114.244
-81.7051
-58.8611
-42.2224
-29.878
-20.8699
-14.2775
-9.43582
-5.89002
-3.30184
-1.39757
0.0150752
1.06036
1.82635
2.3811
2.77506
3.04193
3.20058
3.25034
3.20242
3.03418
2.70015
2.12895
1.19079
22.1106
20.8976
17.8778
12.8712
5.38089
-5.22671
-19.9681
-39.9816
-66.4101
-99.5758
-137.916
-175.941
-203.633
-209.46
-189.385
-153.09
-115.43
-84.8898
-62.1951
-45.2547
-32.4649
-22.9243
-15.9349
-10.8485
-7.18764
-4.53542
-2.59451
-1.15785
-0.085326
0.718213
1.32057
1.76974
2.09867
2.33021
2.41
2.41362
2.30002
2.01983
1.52397
0.760148
59.6496
60.9588
64.1097
69.1969
76.314
85.6652
97.4395
111.615
127.687
144.291
158.901
167.548
166.222
153.973
133.837
111.364
90.4315
72.3618
57.2693
44.9954
35.2688
27.7455
22.0374
17.741
14.4759
11.9365
9.93315
8.38445
7.2129
6.32137
5.63248
5.09356
4.6711
4.3185
3.99137
3.64826
3.24406
2.73026
2.02662
1.03228
58.5807
59.8657
62.9637
67.9879
75.0949
84.5938
96.848
112.09
130.151
149.991
168.944
181.644
180.172
163.913
138.54
112.44
89.5701
70.4872
54.9441
42.611
33.0862
25.8499
20.4171
16.439
13.4564
11.1293
9.30678
7.90555
6.83482
6.00648
5.35645
4.84131
4.42715
4.07633
3.75185
3.41551
3.02456
2.52479
1.84404
0.901826
56.4717
57.6926
60.6427
65.4782
72.4609
82.0869
95.0486
112.133
133.995
160.49
188.32
208.901
208.664
183.35
147.794
115.438
88.9082
67.7769
51.3146
38.7665
29.471
22.8209
18.0173
14.5119
11.6757
9.37856
7.65279
6.40767
5.4995
4.82332
4.31714
3.93767
3.64831
3.41496
3.20482
2.98244
2.70573
2.31535
1.7264
0.820008
53.3758
54.4698
57.1223
61.5346
68.0791
77.4646
90.8136
109.795
136.799
175.086
210.795
252.745
257.92
217.005
165.448
125.531
93.1026
68.4049
50.1905
36.8326
22.8632
16.7015
14.2409
12.728
10.6397
8.54528
6.92869
5.75286
4.86298
4.17265
3.64162
3.23582
2.92399
2.67541
2.4631
2.25846
2.02237
1.69249
1.16164
0.244041
49.4077
50.2918
52.4434
56.0791
61.6255
69.9086
82.346
101.33
130.868
175.902
252.187
337.608
360.622
253.185
169.831
121.824
82.9659
56.5933
39.0305
27.5602
19.9014
4.89128
4.60497
5.39408
4.76504
3.93257
3.37315
2.98193
2.65922
2.39199
2.18339
2.02479
1.906
1.81339
1.7357
1.66123
1.56629
1.3991
1.02993
0.0869014
44.7677
45.3513
46.7764
49.2199
53.0477
58.9804
68.3293
83.5318
109.349
164.169
257.841
451.729
616.062
245.126
172.363
114.879
67.9028
41.4309
25.6219
15.8366
10.3378
9.67005
9.77199
5.92013
3.19746
1.98959
1.4312
1.06059
0.785549
0.601726
0.49144
0.429421
0.40005
0.392946
0.403367
0.42933
0.469764
0.526991
0.619164
0.847677
39.7497
39.9629
40.4761
41.3702
42.8222
45.1651
48.9779
55.2537
65.735
105.082
180.747
411.044
1940.23
194.698
76.3234
31.5015
16.5801
8.30032
-1.27446
-6.09367
15.4206
14.4793
8.73135
5.33867
3.95888
3.24635
2.68327
2.21821
1.86219
1.59632
1.3941
1.24109
1.12657
1.04665
0.999172
0.981724
0.998082
1.07123
1.31149
34.7276
34.5484
34.0698
33.2601
32.0551
30.287
27.5638
22.9731
14.207
16.2695
-0.791176
-161.632
-993.498
-1035.05
-309.127
-99.8116
-44.9596
-25.0861
-16.2341
-10.0797
-2.97242
-8.22958
-6.84648
-5.41118
-4.41802
-3.37344
-2.40229
-1.62971
-1.02831
-0.540312
-0.134209
0.204487
0.487027
0.721195
0.915356
1.07403
1.19112
1.24291
1.16606
0.798507
30.1174
29.5614
28.1489
25.7511
22.1071
16.675
8.46217
-4.37553
-25.3844
-48.9062
-121.867
-265.444
-473.672
-498.932
-315.781
-171.923
-98.2685
-59.8278
-38.3707
-24.7678
-15.0215
-8.94087
-5.1042
-2.25606
-0.451607
0.682657
1.45959
1.99058
2.3324
2.5413
2.66234
2.72409
2.74324
2.72902
2.68467
2.60738
2.47856
2.25535
1.85052
1.09007
26.2989
25.4251
23.2615
19.5948
14.0612
5.96007
-5.88027
-23.3746
-49.7241
-90.4465
-147.374
-218.825
-282.948
-290.095
-232.92
-161.179
-107.345
-72.9636
-50.6457
-35.1394
-24.1697
-16.9441
-12.0731
-8.55389
-6.03378
-4.22104
-2.84664
-1.76935
-0.924163
-0.261589
0.262238
0.678981
1.00801
1.25961
1.43637
1.53434
1.53498
1.40103
1.07932
0.531965
23.5846
22.4944
19.8033
15.2819
8.5326
-1.15606
-14.8522
-34.0025
-60.409
-95.8721
-140.29
-188.455
-225.928
-232.558
-202.382
-154.606
-111.408
-79.9822
-57.8921
-41.7522
-29.7465
-20.9667
-14.5095
-9.74688
-6.24246
-3.67213
-1.7732
-0.36196
0.680748
1.44142
1.98873
2.37416
2.63272
2.7856
2.84076
2.80131
2.65043
2.34945
1.83618
1.00658
22.1809
20.9769
18.0202
13.079
5.7478
-4.65052
-19.0721
-38.6335
-64.3994
-96.7534
-134.119
-171.142
-198.095
-203.847
-184.399
-149.107
-112.606
-83.0903
-61.1289
-44.6925
-32.242
-22.9328
-16.096
-11.1189
-7.50296
-4.86907
-2.93569
-1.50094
-0.428529
0.374366
0.974688
1.42027
1.74306
1.96024
2.07004
2.0834
1.98146
1.72786
1.28289
0.623122
58.5368
59.7767
62.7509
67.5327
74.2112
82.9766
94.0047
107.257
122.254
137.723
151.251
159.109
157.589
145.798
126.674
105.468
85.771
68.741
54.4726
42.8318
33.5861
26.3933
20.896
16.76
13.628
11.1962
9.28874
7.81177
6.6851
5.8255
5.16217
4.64332
4.22937
3.88408
3.57127
3.25347
2.88908
2.42696
1.80011
0.922954
57.4947
58.7143
61.6335
66.3524
73.017
81.9147
93.3813
107.627
124.492
143.003
160.666
172.223
170.621
154.999
130.941
106.382
84.8963
66.9159
52.2191
40.532
31.4907
24.5405
19.2953
15.4957
12.6767
10.4697
8.72467
7.36725
6.31775
5.49912
4.85342
4.33957
3.92396
3.57493
3.26145
2.94993
2.60144
2.16496
1.57534
0.76458
55.4421
56.6014
59.3759
63.9089
70.4453
79.4476
91.5617
107.528
127.976
152.801
178.896
198.251
197.453
173.068
139.436
109.087
84.1876
64.2703
48.6963
36.8283
28.1234
21.6994
16.972
13.5995
10.9377
8.78337
7.14713
5.95194
5.06929
4.40351
3.89833
3.5143
3.21759
2.97965
2.77347
2.57114
2.33719
2.01918
1.53514
0.761513
52.4335
53.471
55.9581
60.0808
66.1892
74.9476
87.4113
105.164
130.512
166.65
201.877
241.975
246.333
206.366
157.161
119.509
88.7222
65.1772
47.7646
34.9905
21.3605
15.6744
13.473
12.017
9.8829
7.71857
6.03119
4.79003
3.84503
3.11275
2.55238
2.12976
1.81324
1.57437
1.39059
1.24039
1.0945
0.902414
0.572903
-0.0388573
48.5832
49.4193
51.4258
54.8034
59.9557
67.6616
79.2664
97.0617
124.945
168.951
242.648
325.198
346.243
240.642
161.757
116.721
79.3241
53.8122
36.7902
25.6954
18.5172
2.98747
3.70464
5.02776
4.40239
3.43053
2.74859
2.26143
1.86085
1.52955
1.26711
1.06429
0.912658
0.801238
0.726493
0.686655
0.676629
0.667282
0.557037
-0.000925446
44.087
44.6364
45.9492
48.1898
51.7074
57.1877
65.8894
80.1762
104.744
158.546
250.758
441.117
599.264
230.38
166.131
112.161
65.4193
39.2758
23.8329
14.383
11.1892
6.4352
6.24425
2.42394
-0.449327
-1.8139
-2.42779
-2.77559
-2.98686
-3.0848
-3.09579
-3.05308
-2.96443
-2.8421
-2.6856
-2.48598
-2.22267
-1.85912
-1.31717
-0.368383
39.2297
39.4249
39.8688
40.6362
41.9001
43.9838
47.453
53.3169
63.4127
102.388
178.206
410.625
1914.93
212.919
84.9527
33.6922
16.5859
7.37064
-2.53333
-7.26366
13.5283
11.6281
5.33256
1.84773
0.490251
-0.159837
-0.615
-0.938989
-1.13885
-1.24504
-1.29052
-1.2941
-1.25997
-1.18653
-1.06356
-0.870529
-0.577256
-0.132166
0.512467
34.3775
34.198
33.697
32.8454
31.5911
29.7835
27.0722
22.6421
14.4149
16.9617
2.04282
-150.336
-966.867
-1021.03
-297.116
-92.094
-41.3895
-24.0076
-16.4046
-10.8298
-4.35213
-8.56816
-8.21762
-7.40198
-6.44047
-5.2781
-4.19121
-3.30758
-2.5997
-2.01709
-1.52809
-1.11491
-0.763974
-0.462425
-0.190506
0.0654994
0.315983
0.552032
0.716394
0.59928
29.9289
29.3852
27.9981
25.6404
22.0762
16.804
8.9042
-3.3373
-23.2323
-45.801
-115.205
-253.094
-454.721
-479.818
-301.357
-162.674
-93.1475
-57.3434
-37.3697
-24.572
-15.2902
-9.81163
-6.30609
-3.63819
-1.90154
-0.790466
-0.00785414
0.554254
0.944842
1.21213
1.39814
1.52885
1.61992
1.68037
1.72
1.74125
1.73517
1.66933
1.46139
0.922875
26.2489
25.4021
23.2951
19.7336
14.3801
6.5828
-4.74939
-21.4022
-46.3789
-84.9183
-138.822
-206.603
-267.631
-274.419
-219.97
-152.172
-101.809
-69.8376
-49.0171
-34.4585
-24.1499
-17.4455
-12.6676
-9.19819
-6.77147
-5.02981
-3.67725
-2.58802
-1.71489
-1.01759
-0.455326
0.00155677
0.372862
0.667774
0.895291
1.05497
1.13445
1.10271
0.906658
0.484968
23.6371
22.5793
19.9726
15.6001
9.09534
-0.20725
-13.3022
-31.5399
-56.6054
-90.193
-132.212
-177.763
-213.294
-219.647
-191.168
-146.196
-105.76
-76.4386
-55.77
-40.5884
-29.2549
-20.9363
-14.7144
-10.1085
-6.74284
-4.27893
-2.4448
-1.06576
-0.0341594
0.729644
1.29075
1.6982
1.98602
2.1748
2.27679
2.29332
2.21188
2.00046
1.60081
0.903784
22.2891
21.1202
18.2606
13.4869
6.43264
-3.54328
-17.3264
-35.9598
-60.4272
-91.0901
-126.446
-161.449
-186.954
-192.494
-174.286
-141.181
-107.005
-79.4071
-58.8203
-43.3389
-31.5606
-22.7168
-16.173
-11.3711
-7.86781
-5.31594
-3.43879
-2.0354
-0.975271
-0.171519
0.438699
0.901065
1.24637
1.49179
1.64483
1.70425
1.65773
1.47746
1.12616
0.569054
57.0008
58.1398
60.8543
65.2034
71.2598
79.185
89.1226
101.018
114.415
128.153
140.031
146.683
144.886
133.812
116.232
96.9169
79.0195
63.5073
50.4541
39.7596
31.2267
24.5194
19.2979
15.3029
12.2706
9.93823
8.12721
6.73261
5.67203
4.86531
4.24624
3.76663
3.38964
3.08303
2.81628
2.55778
2.27133
1.91213
1.4236
0.738881
55.9957
57.1167
59.7773
64.0609
70.0929
78.1213
88.4328
101.196
116.248
132.699
148.317
158.114
156.287
141.734
119.744
97.5007
78.0532
61.7063
48.2831
37.5787
29.268
22.7027
17.6096
13.8964
11.1822
9.09086
7.44772
6.17363
5.19555
4.43976
3.85072
3.3891
3.02378
2.72681
2.47219
2.23262
1.97591
1.65867
1.22335
0.607811
54.0198
55.0842
57.6045
61.7036
67.5963
75.6874
86.5418
100.808
119.042
141.157
164.36
181.478
179.939
157.3
126.807
99.5257
77.0933
59.0463
44.8695
34.0869
26.3141
19.9829
14.9273
11.4866
9.0476
7.17089
5.74657
4.69858
3.92254
3.33807
2.89684
2.56571
2.31751
2.12835
1.9802
1.85376
1.72469
1.55006
1.25144
0.680623
51.1301
52.0789
54.3255
58.0301
63.5031
71.3314
82.4503
98.2733
120.896
153.291
186.899
223.525
226.637
188.874
143.84
109.728
81.5449
59.9317
43.9067
32.1585
19.2779
13.5664
10.6281
8.90913
7.08301
5.35937
4.02735
3.04844
2.30208
1.72118
1.27454
0.941396
0.697552
0.521388
0.40564
0.342693
0.323534
0.318852
0.25162
-0.0710488
47.4405
48.2
49.9939
52.9962
57.5672
64.4014
74.7049
90.5481
115.529
157.003
225.256
302.093
320.395
219.744
148.668
107.741
72.6472
48.7657
32.8396
22.334
14.679
-3.4134
-1.29849
1.24496
1.3947
0.907923
0.514672
0.196526
-0.103888
-0.377704
-0.610713
-0.790209
-0.922128
-1.00657
-1.03075
-0.979424
-0.830335
-0.573521
-0.268985
-0.279923
43.1424
43.6352
44.7806
46.7221
49.7756
54.5578
62.2052
74.89
97.0172
148.019
236.271
418.826
567.268
207.243
159.073
107.152
60.4219
34.3849
19.2922
9.95048
1.32255
-5.24347
-1.41926
-1.52319
-2.63016
-3.25987
-3.56688
-3.81802
-4.05197
-4.23661
-4.3605
-4.44006
-4.46266
-4.42989
-4.32582
-4.11942
-3.75412
-3.12782
-2.06537
-0.322985
38.5063
38.6722
39.0101
39.5873
40.5639
42.2306
45.1028
50.1408
59.1712
96.4838
170.691
401.519
1867.07
223.935
83.8533
31.3661
13.3274
3.97504
-6.34084
-12.9474
15.314
11.7679
4.54279
0.536667
-1.33735
-2.43652
-3.23456
-3.81865
-4.22043
-4.48353
-4.63853
-4.7156
-4.72405
-4.64299
-4.44793
-4.08513
-3.46065
-2.41749
-0.748488
33.8895
33.699
33.1623
32.2477
30.911
29.0166
26.2596
21.9382
14.2741
17.1016
4.71833
-135.675
-920.484
-974.368
-273.449
-82.0798
-38.2818
-24.0791
-17.7717
-12.536
-3.76264
-7.47971
-7.52767
-7.08786
-6.35209
-5.43579
-4.57133
-3.86357
-3.30001
-2.84367
-2.46782
-2.14373
-1.87822
-1.64549
-1.41125
-1.1479
-0.821463
-0.40157
0.0915446
0.390883
29.6601
29.13
27.7743
25.4718
22.0142
16.9555
9.47787
-1.93665
-20.2331
-41.1549
-104.945
-232.894
-421.782
-444.653
-275.891
-148.155
-85.826
-54.1124
-36.286
-24.6667
-16.0931
-11.6426
-7.31814
-4.14653
-2.45045
-1.55329
-0.96395
-0.552615
-0.283866
-0.115174
-0.00587802
0.0697189
0.122332
0.16664
0.218481
0.288428
0.381139
0.486057
0.542542
0.386484
26.1672
25.3543
23.3297
19.9178
14.8185
7.45009
-3.16002
-18.5987
-41.5468
-76.7306
-125.867
-187.662
-243.286
-249.413
-199.964
-138.794
-93.8289
-65.3611
-46.675
-33.5059
-24.2132
-18.2693
-13.139
-9.37413
-6.96823
-5.34664
-4.09454
-3.08103
-2.27142
-1.62873
-1.11223
-0.691655
-0.348864
-0.0704938
0.157693
0.340245
0.473499
0.538619
0.491392
0.270909
23.6913
22.6795
20.1918
16.0318
9.8734
1.12095
-11.1131
-28.0265
-51.1149
-81.8843
-120.228
-161.691
-194.065
-199.927
-174.234
-133.776
-97.5647
-71.2956
-52.6451
-38.8384
-28.4933
-20.852
-14.8854
-10.3622
-7.08563
-4.72593
-2.98519
-1.68358
-0.717093
-0.00823782
0.507744
0.880232
1.14343
1.31983
1.42554
1.46501
1.4308
1.30023
1.02884
0.546226
22.417
21.2996
18.5774
14.0478
7.38413
-1.98926
-14.8632
-32.1565
-54.7304
-82.8774
-115.201
-147.118
-170.373
-175.544
-159.258
-129.569
-98.9047
-74.0766
-55.4391
-41.3186
-30.5109
-22.3392
-16.1881
-11.5596
-8.14075
-5.65797
-3.84355
-2.49201
-1.47384
-0.705231
-0.124907
0.312886
0.639511
0.874642
1.02919
1.10441
1.09146
0.970849
0.716333
0.319614
55.1624
56.175
58.5694
62.3873
67.6787
74.564
83.1389
93.3173
104.662
116.133
125.819
130.887
128.689
118.586
103.068
86.1985
70.5781
56.9722
45.4427
35.9375
28.3283
22.3414
17.6422
13.97
11.1339
8.94325
7.2446
5.93782
4.94684
4.18963
3.6061
3.15348
2.79949
2.51345
2.27493
2.05695
1.82818
1.55286
1.18444
0.656564
54.2012
55.1972
57.5383
61.2868
66.5379
73.4847
82.3411
93.206
105.883
119.55
132.256
139.8
137.558
124.528
105.389
86.196
69.3686
55.1151
43.325
33.8901
26.6038
20.8687
16.3469
12.8817
10.2556
8.21412
6.60639
5.35905
4.41492
3.68661
3.12233
2.68371
2.34143
2.07211
1.85319
1.66328
1.47864
1.26628
0.978859
0.542776
52.3157
53.2587
55.464
59.0271
64.1197
71.0657
80.3094
92.3471
107.58
125.863
144.831
158.321
155.918
136.021
109.978
86.8287
67.6919
52.1505
39.843
30.5626
24.3453
19.0869
14.2612
10.7586
8.34728
6.5586
5.19038
4.16535
3.38531
2.79549
2.34696
2.00765
1.75569
1.56933
1.43432
1.3405
1.27799
1.22006
1.10197
0.741273
49.5667
50.4015
52.3476
55.5322
60.208
66.8507
76.211
89.4156
108.145
134.813
165.204
195.827
197.178
163.565
124.988
95.7788
71.3717
52.6568
38.7222
28.7161
19.5403
16.9717
11.7411
7.83682
5.1944
3.28396
1.92506
0.982492
0.306329
-0.188531
-0.547759
-0.796823
-0.95648
-1.05048
-1.07831
-1.03092
-0.895148
-0.663276
-0.360936
-0.163303
46.0667
46.7262
48.2532
50.7853
54.619
60.322
68.8713
81.9484
102.514
139.264
197.304
263.282
277.096
187.24
129.01
93.1984
62.113
41.2928
27.5075
18.9155
15.6579
7.69334
5.66279
4.01
2.28905
0.843287
-0.231791
-1.00968
-1.61487
-2.09983
-2.48574
-2.77207
-2.97504
-3.10903
-3.15622
-3.07541
-2.81459
-2.28972
-1.43549
-0.528483
42.0077
42.4181
43.352
44.9172
47.3749
51.2278
57.3973
67.669
85.7121
130.859
209.983
374.951
507.926
171.826
151.994
95.0567
50.4664
26.7555
13.4026
5.16328
-3.51062
-31.6382
-28.1322
-25.7954
-24.6476
-23.4773
-22.3717
-21.5129
-20.8283
-20.2258
-19.664
-19.1418
-18.6214
-18.0628
-17.4365
-16.6878
-15.7027
-14.2409
-11.7583
-6.8874
37.6247
37.7512
37.9538
38.2888
38.889
39.9806
41.9719
45.6412
52.5325
85.605
153.553
373.382
1782.18
266.672
72.2561
18.2041
0.514243
-7.46162
-13.3444
-18.2964
-0.539742
-3.90489
-8.99616
-11.4947
-12.5032
-13.0243
-13.378
-13.5879
-13.6567
-13.6155
-13.5076
-13.3067
-13.0228
-12.6412
-12.1078
-11.3169
-10.0442
-7.85745
-4.06891
33.2867
33.0845
32.4992
31.4991
30.0426
28.0029
25.1059
20.7468
13.4613
15.8163
5.48962
-118.709
-836.814
-870.079
-234.863
-72.902
-39.1161
-28.2273
-22.6827
-17.4696
-12.182
-21.585
-17.9766
-14.1715
-11.8685
-10.2568
-9.01995
-8.09875
-7.41862
-6.90134
-6.49391
-6.15215
-5.86148
-5.58853
-5.29296
-4.92494
-4.41474
-3.65309
-2.51935
-1.07704
29.3206
28.8061
27.4825
25.2412
21.9032
17.0859
10.0925
-0.349197
-16.6902
-35.316
-90.991
-202.762
-368.222
-385.67
-237.613
-129.219
-77.3786
-50.8248
-35.5304
-25.6424
-19.9181
-19.1317
-12.7707
-7.66303
-5.1102
-3.80159
-2.94406
-2.34633
-1.94975
-1.68931
-1.50928
-1.37686
-1.27354
-1.17243
-1.0534
-0.893929
-0.667582
-0.35034
0.0382002
0.292996
26.0482
25.2748
23.3488
20.1152
15.3208
8.46979
-1.25875
-15.1879
-35.5426
-66.2542
-108.679
-161.574
-208.718
-213.984
-172.598
-121.49
-83.8759
-59.7977
-43.7066
-32.2929
-24.4872
-20.0266
-14.9073
-10.7789
-8.1111
-6.30854
-4.91748
-3.80165
-2.92198
-2.23322
-1.68813
-1.25014
-0.89866
-0.608734
-0.363227
-0.148488
0.0434246
0.208614
0.311795
0.249058
23.7319
22.7759
20.4316
16.5281
10.7903
2.71124
-8.4583
-23.7141
-44.2795
-71.3547
-104.729
-140.458
-168.268
-173.413
-151.84
-117.869
-87.273
-64.7912
-48.5739
-36.4386
-27.3512
-20.7075
-15.368
-11.0743
-7.84033
-5.46694
-3.69637
-2.35967
-1.35726
-0.613705
-0.0646748
0.339579
0.634212
0.845447
0.991114
1.08029
1.11187
1.0698
0.91227
0.539978
22.5427
21.4885
18.9315
14.6962
8.50604
-0.12856
-11.8737
-27.4898
-47.6614
-72.5598
-100.892
-128.659
-148.827
-153.456
-139.794
-114.742
-88.6647
-67.3027
-51.0432
-38.5783
-28.9723
-21.6866
-16.1438
-11.8359
-8.54908
-6.10861
-4.29588
-2.9263
-1.88099
-1.0825
-0.472986
-0.00786459
0.34479
0.60682
0.791277
0.903218
0.937839
0.87929
0.700274
0.36117
53.1585
54.0298
56.0683
59.2972
63.7401
69.4688
76.521
84.768
93.7801
102.637
109.758
112.964
110.268
101.33
88.2584
74.2216
61.2074
49.7758
39.9631
31.7427
25.0394
19.6912
15.4929
12.227
9.69208
7.70937
6.15263
4.94423
4.03261
3.32644
2.77685
2.34909
2.01915
1.74022
1.52171
1.33517
1.15013
0.942329
0.684826
0.367758
52.2442
53.1002
55.0857
58.24
62.6236
68.3637
75.5863
84.2972
94.2341
104.606
113.71
118.597
115.736
104.605
88.9637
73.3932
59.6412
47.8196
37.8583
29.6854
23.1271
17.9821
13.9839
10.9283
8.5787
6.72431
5.23828
4.05971
3.22807
2.5565
2.03184
1.62152
1.29466
1.04434
0.845418
0.686441
0.549524
0.41685
0.273691
0.124394
50.4561
51.2628
53.1165
56.0829
60.2834
65.9445
73.3617
82.8289
94.504
108.049
121.526
130.156
126.733
110.372
89.8145
71.7579
56.7182
44.2031
33.9897
25.909
19.5488
14.9496
11.1779
8.35019
6.23047
4.61372
3.35306
2.43437
1.66827
1.11581
0.700867
0.39223
0.172511
0.0329038
-0.0580554
-0.0968405
-0.0825741
-0.0182237
0.0755801
0.146745
47.8564
48.565
50.1746
52.7786
56.5608
61.8614
69.1967
79.3008
93.2013
112.179
137.15
158.652
157.718
130.67
100.388
77.471
58.2648
43.3179
31.8864
23.3395
12.0913
9.35964
6.17373
3.63127
1.52059
-0.15634
-1.38344
-2.24556
-2.87756
-3.33708
-3.6647
-3.87995
-4.00365
-4.0572
-4.03563
-3.91591
-3.67391
-3.25795
-2.58718
-1.48749
44.5605
45.1086
46.3364
48.3413
51.3418
55.7468
62.2305
71.9211
86.7491
116.064
157.459
203.68
208.758
138.097
96.1379
69.3358
45.6485
29.5489
18.6562
11.8522
10.0365
-1.87218
-3.12633
-4.48086
-5.80427
-6.91479
-7.90033
-8.45197
-8.7897
-9.02364
-9.18133
-9.27645
-9.28659
-9.20758
-9.06734
-8.78667
-8.28872
-7.42489
-5.94591
-3.46387
40.7491
41.0753
41.7721
42.9143
44.6933
47.4603
51.8419
59.0225
71.3677
106.341
166.913
290.928
386.304
103.426
110.323
56.1426
20.6546
2.73563
-7.02834
-12.2684
-11.3954
-25.5479
-26.8964
-30.7165
-31.9774
-31.7281
-30.9008
-30.195
-29.5205
-28.8178
-28.0921
-27.337
-26.5895
-25.8336
-24.9843
-23.9804
-22.68
-20.7419
-17.3671
-10.5892
36.6666
36.7267
36.7761
36.8394
37.0048
37.4124
38.3021
40.1211
43.7505
68.7178
120.794
301.56
1588.1
254.406
-15.9158
-58.4335
-67.2024
-68.5275
-66.7571
-61.5801
-35.1399
-34.4027
-36.4744
-36.6704
-35.8039
-34.7567
-33.8035
-32.8835
-31.9577
-31.0307
-30.1309
-29.2251
-28.2678
-27.2684
-26.1348
-24.7149
-22.642
-19.0543
-11.6794
32.6233
32.3951
31.7514
30.6512
29.0502
26.8214
23.7011
19.1539
12.0102
12.7411
3.36271
-93.4038
-666.222
-660.644
-188.515
-75.1121
-50.6321
-41.2372
-35.5533
-30.1
-27.3129
-30.422
-26.7158
-22.8986
-20.5114
-18.7497
-17.3563
-16.2698
-15.4045
-14.6885
-14.0751
-13.5355
-13.0578
-12.5654
-12.0478
-11.4516
-10.6773
-9.54242
-7.7097
-4.51185
28.9326
28.4331
27.1401
24.961
21.7486
17.1834
10.6989
1.31684
-12.6795
-28.6364
-73.3207
-159.068
-282.909
-296.138
-187.124
-107.048
-67.9025
-46.8535
-34.1655
-25.8934
-23.37
-18.9133
-15.0673
-11.8632
-9.8868
-8.57068
-7.56635
-6.78276
-6.17885
-5.70774
-5.32843
-5.01205
-4.74378
-4.49032
-4.22813
-3.9285
-3.54838
-3.02748
-2.28565
-1.23165
25.8962
25.1658
23.3448
20.304
15.8421
9.55693
0.799202
-11.4404
-28.7964
-54.1441
-88.1555
-129.096
-164.396
-169.049
-138.976
-100.635
-71.5793
-52.2904
-38.8757
-29.0616
-22.1326
-18.3165
-14.7237
-11.6763
-9.39997
-7.68782
-6.33114
-5.23783
-4.36238
-3.661
-3.09409
-2.62977
-2.24822
-1.92338
-1.63672
-1.37174
-1.11564
-0.858198
-0.598132
-0.336067
23.751
22.8564
20.6684
17.0461
11.7716
4.43751
-5.54653
-18.9372
-36.61
-59.3382
-86.7101
-115.349
-137.371
-141.548
-125.229
-99.3571
-75.2882
-56.9878
-43.3733
-32.9426
-24.9784
-19.1397
-14.6331
-11.0434
-8.27601
-6.18621
-4.59745
-3.37951
-2.44606
-1.73298
-1.18791
-0.77052
-0.451017
-0.206206
-0.0199458
0.117135
0.205456
0.236053
0.190053
0.0518657
22.6521
21.6678
19.2922
15.3802
9.71251
1.89777
-8.58781
-22.3172
-39.7551
-60.8999
-84.5488
-107.375
-123.79
-127.7
-117.192
-97.5801
-76.7557
-59.242
-45.5537
-34.8339
-26.4337
-19.9975
-15.1208
-11.3699
-8.49377
-6.31278
-4.65816
-3.3908
-2.41379
-1.6598
-1.07804
-0.62872
-0.282769
-0.0202337
0.17169
0.2988
0.357336
0.335078
0.219536
0.0285843
51.1363
51.8599
53.5356
56.1657
59.7472
64.3046
69.8182
76.1199
82.7916
89.0412
93.6245
94.983
91.8407
84.1616
73.5882
62.388
51.9662
42.705
34.6218
27.7192
21.9786
17.3298
13.6713
10.872
8.71353
7.00805
5.65468
4.59805
3.78843
3.16274
2.67639
2.29744
2.00098
1.76251
1.56853
1.39844
1.22794
1.0324
0.782926
0.449836
50.2696
50.9785
52.6017
55.1525
58.6557
63.1752
68.7493
75.2947
82.4887
89.5887
95.2096
97.2472
93.696
84.5366
72.5088
60.6136
49.9961
40.684
32.6375
25.8519
20.2513
15.7345
12.2459
9.69708
7.77296
6.25084
5.03794
4.085
3.35138
2.77025
2.30827
1.94077
1.6482
1.4153
1.22711
1.07176
0.932785
0.789128
0.611677
0.361533
48.5791
49.2408
50.7375
53.0986
56.3963
60.7605
66.3394
73.2274
81.3443
90.1758
98.1777
101.963
97.1907
84.1132
69.0376
56.1311
45.2792
35.8333
27.7562
21.0465
15.5345
11.2549
8.60304
6.75418
5.18338
3.89607
2.92494
2.22156
1.69531
1.30817
1.02363
0.817954
0.675161
0.581613
0.525438
0.506508
0.523223
0.563554
0.590132
0.485571
46.1301
46.6994
47.9697
49.9875
52.8673
56.8155
62.1152
69.1114
78.182
89.601
101.436
109.189
101.934
81.0305
62.1656
49.016
38.3225
29.2745
21.7347
15.2854
8.68039
2.43793
2.56128
3.00014
2.37874
1.45761
0.670893
0.0594492
-0.434449
-0.831973
-1.14099
-1.36805
-1.52081
-1.60909
-1.62983
-1.56617
-1.39912
-1.10202
-0.663525
-0.147778
43.0388
43.465
44.3876
45.8638
48.0222
51.1166
55.5123
61.7526
70.5875
90.8635
112.256
132.467
125.038
82.4202
57.3964
43.7972
29.6658
19.1009
11.6193
6.12377
0.595065
-13.6856
-10.8784
-7.82408
-6.47803
-5.8188
-5.39236
-5.06903
-4.85273
-4.72352
-4.64787
-4.59713
-4.55083
-4.49269
-4.38773
-4.18588
-3.82111
-3.18941
-2.18188
-0.83821
39.4792
39.7104
40.1636
40.8798
41.9733
43.6415
46.2031
50.1898
56.4707
78.5719
106.068
149.456
166.491
28.72
20.1444
3.91767
-4.6994
-8.89638
-12.2798
-14.9886
-21.5882
-14.399
-15.3329
-16.9674
-17.3971
-17.2267
-16.8815
-16.5422
-16.2065
-15.863
-15.5133
-15.1431
-14.7739
-14.3956
-13.943
-13.3534
-12.5156
-11.1968
-8.95851
-5.0649
35.6847
35.6811
35.5725
35.3612
35.0885
34.8038
34.5631
34.4361
34.4812
48.6836
60.3111
131.139
175.303
-679.177
-124.064
-87.2335
-64.4425
-60.2116
-56.9517
-54.2999
-66.9143
-40.3698
-38.0824
-35.8799
-33.9111
-31.9958
-30.2923
-28.8411
-27.5686
-26.4218
-25.3762
-24.4174
-23.5248
-22.6393
-21.728
-20.7265
-19.5183
-17.8203
-15.0083
-9.47416
31.9375
31.6828
30.9783
29.778
28.0343
25.6133
22.2471
17.431
10.1871
8.40814
-13.8754
-82.1969
-306.597
-258.753
-105.335
-56.1591
-35.5335
-26.9226
-22.1527
-17.9486
-10.0309
5.36161
1.91203
-1.96673
-3.60179
-4.33712
-4.78672
-5.08349
-5.2629
-5.35777
-5.39723
-5.40596
-5.37824
-5.28863
-5.12231
-4.85593
-4.42377
-3.70428
-2.5447
-1.00384
28.5273
28.0381
26.7762
24.6622
21.5798
17.2671
11.267
2.79665
-9.60578
-28.8987
-53.3294
-108.154
-178.131
-188.624
-128.776
-80.4526
-53.8136
-38.0075
-27.9667
-20.5741
-10.7229
-1.91857
-2.91394
-4.29186
-4.23547
-3.70857
-3.2019
-2.77771
-2.42406
-2.13519
-1.90417
-1.71861
-1.56843
-1.43817
-1.29613
-1.12046
-0.887304
-0.566896
-0.175803
0.081208
25.7229
25.035
23.3196
20.4766
16.3546
10.644
2.86242
-7.70382
-22.076
-41.5692
-66.7595
-95.0657
-118.313
-122.242
-104.08
-78.858
-58.1758
-43.4853
-32.7203
-24.2147
-17.0013
-12.0426
-9.22409
-7.17922
-5.35319
-3.84326
-2.69366
-1.83189
-1.18069
-0.687865
-0.315815
-0.0346043
0.175967
0.337351
0.471599
0.589707
0.695006
0.776014
0.776879
0.519642
23.7463
22.9147
20.886
17.5521
12.7518
6.17755
-2.60192
-14.1014
-28.83
-47.0416
-68.0716
-89.4044
-105.299
-108.812
-98.2533
-80.2912
-62.704
-48.5477
-37.5344
-28.7375
-21.6164
-16.0608
-11.781
-8.60375
-6.20098
-4.35539
-2.94308
-1.8651
-1.04157
-0.413083
0.064126
0.42381
0.6915
0.887116
1.02467
1.1109
1.1411
1.09378
0.918475
0.507806
22.7353
21.8241
19.6352
16.055
10.9228
3.94492
-5.25898
-17.0684
-31.7187
-49.0127
-67.8278
-85.5793
-98.1541
-101.402
-94.151
-79.9684
-64.32
-50.6021
-39.4656
-30.4665
-23.1847
-17.4042
-12.9337
-9.54224
-6.94634
-4.92882
-3.35945
-2.14559
-1.21079
-0.49334
0.0543492
0.468742
0.7776
1.00059
1.14975
1.22999
1.23414
1.14138
0.911075
0.474039
49.2366
49.8172
51.1487
53.2189
55.997
59.4683
63.5681
68.1062
72.6956
76.6873
79.1647
79.1046
75.802
69.424
61.1457
52.463
44.3059
36.949
30.4245
24.7673
20.005
16.1219
13.0536
10.6734
8.79511
7.27595
6.04662
5.06617
4.29351
3.68373
3.19987
2.8134
2.50091
2.24139
2.01611
1.80618
1.58761
1.3318
1.00421
0.564484
48.4148
48.981
50.2603
52.2512
54.9343
58.3282
62.4003
67.0065
71.8035
76.1442
78.9991
79.0696
75.3643
68.1618
59.2114
50.3347
42.2647
35.0336
28.6483
23.1697
18.6136
14.9574
12.1546
10.025
8.33332
6.94937
5.82329
4.91686
4.18869
3.59903
3.11844
2.72499
2.40055
2.12861
1.89397
1.68203
1.47264
1.23815
0.939385
0.526284
46.8155
47.3369
48.4931
50.2942
52.7592
55.9405
59.8709
64.5008
69.5948
74.5551
78.1525
78.4568
73.6467
64.4012
54.1719
45.2979
37.6681
30.7542
24.6225
19.4298
15.2039
12.012
9.89795
8.2404
6.73432
5.44137
4.42176
3.64238
3.04214
2.57641
2.21576
1.93764
1.72449
1.56185
1.43761
1.34255
1.2629
1.17234
1.01582
0.673282
44.5075
44.9446
45.8911
47.3655
49.4234
52.1564
55.6712
60.0403
65.2149
70.7931
75.424