/*--------------------------------*- C++ -*----------------------------------*\
| =========                 |                                                 |
| \\      /  F ield         | OpenFOAM: The Open Source CFD Toolbox           |
|  \\    /   O peration     | Version:  2306                                  |
|   \\  /    A nd           | Website:  www.openfoam.com                      |
|    \\/     M anipulation  |                                                 |
\*---------------------------------------------------------------------------*/
FoamFile
{
    version     2.0;
    format      ascii;
    arch        "LSB;label=32;scalar=64";
    class       surfaceScalarField;
    location    "1.4";
    object      phi;
}
// * * * * * * * * * * * * * * * * * * * * * * * * * * * * * * * * * * * * * //

dimensions      [0 3 -1 0 0 0 0];

oriented        oriented;

internalField   nonuniform List<scalar> 
338621
(
24.9949
0.00233085
0.00149058
24.987
0.00485697
0.00306673
24.9746
0.0076882
0.0048552
24.957
0.010709
0.00699188
24.9333
0.014042
0.00978033
24.9001
0.020102
0.0133783
24.8528
0.0296701
0.0178841
24.7891
0.0403438
0.023592
24.7265
0.0321796
0.0307154
24.6827
0.00493547
0.0391468
24.6538
-0.019683
0.0487409
24.5797
0.0152929
0.0590389
24.6083
-0.0982589
0.0697306
24.7392
-0.21054
0.0797782
24.7819
-0.130974
0.0884325
24.8156
-0.128669
0.0952011
24.8461
-0.130343
0.100111
24.8711
-0.128595
0.103734
24.8924
-0.127389
0.106306
24.9204
-0.13621
0.10825
24.9513
-0.140397
0.109588
24.9747
-0.134075
0.110735
24.9924
-0.129501
0.11181
25.0067
-0.12696
0.112716
25.0185
-0.125422
0.113625
25.0282
-0.124221
0.114557
25.0364
-0.123636
0.115431
25.0432
-0.123068
0.116222
25.0489
-0.122635
0.117002
25.0537
-0.12256
0.117718
25.0579
-0.122565
0.118331
25.0618
-0.122641
0.118792
25.0653
-0.122697
0.119193
25.0685
-0.122725
0.1195
25.0716
-0.122738
0.119663
25.0749
-0.123043
0.119709
25.0785
-0.123146
0.119594
25.0823
-0.123249
0.119403
25.0866
-0.123414
0.119101
-0.123921
0.118448
24.9948
0.00463978
0.00145895
24.9869
0.00985289
0.00296392
24.9741
0.0159111
0.00471787
24.9564
0.0216841
0.00681923
24.9327
0.028321
0.00956541
24.9027
0.0373024
0.0130353
24.8664
0.0486215
0.0175676
24.8199
0.0636928
0.0233398
24.7546
0.0671354
0.0306156
24.6791
0.0411616
0.0394314
24.6356
-0.0257085
0.0497654
24.6219
-0.0317858
0.0608378
24.6605
-0.210029
0.0732041
24.745
-0.379651
0.0846391
24.8264
-0.306404
0.0941596
24.8962
-0.299758
0.101389
24.9503
-0.290775
0.106542
24.9944
-0.282741
0.110236
25.0411
-0.286926
0.112896
25.0765
-0.28632
0.114769
25.0978
-0.277848
0.116174
25.1128
-0.266341
0.117274
25.1229
-0.257862
0.118339
25.1305
-0.253834
0.119255
25.136
-0.251025
0.120125
25.14
-0.249197
0.120939
25.1424
-0.24772
0.121751
25.1441
-0.247284
0.122501
25.1455
-0.247215
0.123212
25.1462
-0.247111
0.123865
25.1465
-0.247386
0.124438
25.1465
-0.247482
0.124917
25.1466
-0.248107
0.125315
25.1467
-0.248455
0.125612
25.1469
-0.248793
0.125792
25.1474
-0.249398
0.125899
25.1482
-0.249798
0.125837
25.1495
-0.25027
0.125719
25.1517
-0.251068
0.125449
-0.251339
0.124877
24.9952
0.00661524
0.00138146
24.9874
0.0149469
0.00280051
24.9752
0.0237391
0.00442318
24.9569
0.0335793
0.00648355
24.9322
0.0440826
0.00911261
24.9005
0.0566558
0.0125034
24.8599
0.072309
0.0170407
24.81
0.090912
0.0228995
24.7401
0.106625
0.0305422
24.6412
0.100041
0.0402602
24.5635
0.00541129
0.0521412
-0.00608568
0.00570491
-0.00505043
24.6593
-0.038868
0.0661374
-0.0587373
-0.0379536
-0.058183
24.5514
-0.0116763
0.0796448
-0.0962193
0.020837
-0.0948503
24.7246
-0.183357
0.0930195
-0.125462
-0.213315
-0.123825
24.8193
-0.130773
0.103329
-0.123671
-0.128646
-0.121346
24.8821
-0.120337
0.110792
-0.118533
-0.117842
-0.116407
24.9382
-0.116677
0.11597
-0.1169
-0.114795
-0.114343
25.0061
-0.119144
0.119627
-0.117993
-0.117111
-0.115921
25.0509
-0.115287
0.122251
-0.113713
-0.113271
-0.111737
25.0781
-0.111045
0.124021
-0.109786
-0.108996
-0.107683
25.0974
-0.422467
0.125315
25.112
-0.407359
0.126353
25.1209
-0.394157
0.127413
25.1274
-0.38876
0.12845
25.1323
-0.385367
0.129449
25.1355
-0.382765
0.130338
25.1373
-0.380575
0.131115
25.1384
-0.380165
0.131796
25.1383
-0.379504
0.132392
25.1382
-0.379916
0.132912
25.1374
-0.380013
0.133352
25.1367
-0.380459
0.133713
25.1356
-0.380956
0.133943
25.1347
-0.381693
0.134182
25.1335
-0.381926
0.134254
25.1325
-0.382689
0.134284
25.1321
-0.383534
0.134157
25.1322
-0.384299
0.133968
25.1326
-0.385133
0.133634
-0.385916
0.133041
24.9955
0.00886925
0.00126218
24.9886
0.019321
0.00255639
24.9767
0.0317295
0.00401564
24.9596
0.0448085
0.00594509
24.9347
0.0606888
0.00837685
24.8999
0.0800121
0.0116059
24.8538
0.102572
0.0159761
24.7949
0.128144
0.0217947
24.7274
0.14463
0.0296589
6.14031
0.0371099
0.040187
0.0544503
0.0384811
0.0546536
6.16245
6.13942
6.16051
6.12256
0.0173143
0.00585604
-6.10925
6.09684
-0.0341408
0.00767975
-6.10054
6.12182
-0.0426175
0.00963356
-6.114
6.14089
-0.222007
0.0117319
-6.15976
6.17426
-0.158648
0.0133622
-6.18782
6.19885
-0.145777
0.0144162
-6.21051
6.22519
-0.146524
0.0151726
-6.23754
6.24516
-0.142474
0.0157093
-6.25137
6.25699
-0.136984
0.0160743
-6.26176
6.26613
-0.13178
0.0163621
25.1104
-0.144826
0.136834
-0.145448
-0.143747
-0.145269
-6.27001
-6.27485
-6.27057
-6.27506
25.1174
-0.552469
0.138128
25.1203
-0.536292
0.139145
25.1228
-0.531296
0.140063
25.1229
-0.526434
0.141013
25.1209
-0.522721
0.141876
25.1184
-0.520682
0.142605
25.1146
-0.519494
0.143205
25.1097
-0.518345
0.143685
25.1041
-0.518335
0.144058
25.0981
-0.518329
0.144322
25.0916
-0.518432
0.144483
25.0846
-0.518497
0.144499
25.0776
-0.51924
0.144525
25.0707
-0.519396
0.144356
25.0637
-0.519801
0.144128
25.0569
-0.520456
0.143716
25.0504
-0.520955
0.14315
25.0453
-0.522423
0.142426
-0.522909
0.14141
24.9972
0.0094427
0.00110173
24.9912
0.023172
0.00222793
24.9813
0.038183
0.00349131
24.9657
0.0553028
0.00518367
24.9426
0.0765346
0.00732192
24.9088
0.103635
0.0101797
24.8585
0.13896
0.0140506
24.7837
0.183651
0.019386
6.17059
0.234166
0.0266547
6.16331
6.17034
6.16331
6.15435
0.0493825
0.00397249
6.12841
0.00553383
-6.15667
0.0203377
0.0119917
0.011817
0.0204552
-0.0418675
-6.07518
6.04041
0.0075037
-0.00191538
0.00435736
0.00397509
-0.00173159
0.0225499
-6.03936
6.05716
0.00989607
0.0290986
-0.0401024
-0.0403341
-0.0191199
0.042706
-6.10924
6.13456
0.0127465
-0.0525235
-0.0671303
-0.10503
-0.0529809
0.239555
-6.16739
6.17989
0.0143713
-0.0516098
-0.0554885
-0.0547673
-0.0520562
0.187032
-6.19207
6.20598
0.0152311
-0.0520169
-0.0513671
-0.0511632
-0.0522183
0.177627
-6.22006
6.23238
0.0157672
-0.0501534
-0.0503277
-0.0500494
-0.0504907
0.172939
-6.24253
6.25029
0.0161164
-0.0473735
-0.04762
-0.0472194
-0.0478108
0.166138
-6.25718
6.26225
0.0164066
-0.0447308
-0.0452728
-0.0448448
-0.0451709
0.158527
-6.26681
6.26939
0.0167363
-0.0424385
-0.0431455
-0.0427572
-0.0428201
0.151834
-6.2729
6.27486
-0.164015
0.017224
25.0571
-0.660353
0.141103
-6.27507
-6.26933
-6.27593
-6.27004
25.0309
-0.652268
0.142183
25.0026
-0.645372
0.142329
24.9738
-0.639661
0.142004
24.946
-0.6362
0.14137
24.9187
-0.633898
0.140482
24.8919
-0.632143
0.139383
24.8664
-0.630952
0.138123
24.8414
-0.630029
0.136723
24.8174
-0.629519
0.13521
24.7946
-0.629236
0.133594
24.7731
-0.628898
0.131858
24.7525
-0.628682
0.130118
24.7333
-0.628521
0.128265
24.7154
-0.628212
0.126342
24.6987
-0.628078
0.124298
24.6838
-0.628142
0.122092
24.6707
-0.628998
0.119732
-0.631489
0.117192
24.9998
0.00803072
0.000904259
24.9964
0.0247714
0.00182682
24.9888
0.042969
0.00286488
24.977
0.0630054
0.00418474
24.9593
0.0883871
0.00591725
24.932
0.122724
0.00818171
24.8887
0.171132
0.0111894
24.816
0.240991
0.015353
6.17042
0.348591
0.0208955
6.17003
6.17038
6.16987
-0.0654784
6.14468
0.0881197
0.00309955
-0.0198208
-1.52745
1.52227
0.0244296
0.000576665
-0.0197976
-1.50389
1.49167
0.0312924
0.000717509
-1.46771
0.0518887
1.47744
-0.0627628
0.00113916
-1.52851
0.0848947
1.53711
-0.0948634
0.00135975
-1.5356
0.0625079
-0.0665484
0.00184078
1.53779
-1.54724
0.0607732
-0.0654318
0.00209532
1.5498
0.0583832
-1.5556
1.55709
-0.0621662
0.00229246
0.0541732
-1.56017
1.56077
-0.0571443
0.00237313
0.0509243
-1.56157
1.56171
-0.0533727
0.00231069
0.0479464
-1.56125
1.56094
-0.0497866
0.00215517
-1.55509
0.177649
6.16316
-0.166037
0.0145701
-1.53849
-1.55576
-1.54
23.8227
-0.757139
0.0687363
-6.10246
-5.80146
-6.10157
-5.78913
23.8411
-0.739644
0.0689562
23.8557
-0.728985
0.0689465
23.8688
-0.721018
0.0683059
23.8803
-0.71494
0.0672507
23.8905
-0.709947
0.0658093
23.9001
-0.705721
0.0639848
23.9094
-0.702074
0.0618133
23.9189
-0.698923
0.0593622
23.9288
-0.696133
0.0567195
23.9392
-0.693553
0.0539752
23.9503
-0.6912
0.0511862
23.962
-0.688856
0.0484806
23.9741
-0.686448
0.045839
23.9867
-0.684168
0.0432744
23.9997
-0.681812
0.0407541
24.0129
-0.679489
0.0381948
24.0256
-0.677217
0.0354861
-0.674466
0.0325961
25.003
0.00413161
0.000682775
25.0036
0.0228634
0.00136532
25.0007
0.0437058
0.00213691
24.9951
0.0656436
0.00304464
24.9863
0.0929318
0.00421064
24.9728
0.130487
0.00572008
24.9533
0.183106
0.00758055
24.9224
0.261903
0.00993877
6.21346
0.388725
0.012664
6.2216
6.21318
6.2214
-0.106504
6.1981
0.12007
0.00178925
-0.0396079
-1.54214
1.53599
0.0454536
0.000298261
-0.0829411
-1.50657
1.488
0.101201
0.000312642
0.00433618
-0.0746089
0.0747866
-0.00455372
3.97577e-05
-0.0213742
0.000448954
0.0208861
2.90089e-06
3.61964e-05
-0.229402
0.0156319
-0.0264365
-0.000687645
0.240894
-1.2071
0.0635158
-0.0813881
-0.00466357
1.22963
0.060372
-1.27701
1.28694
-0.0660615
-0.00423957
0.0593811
-1.31484
1.32338
-0.0646258
-0.00329222
0.055194
-1.34373
1.34969
-0.0587555
-0.00239676
0.0512674
-1.36428
1.36977
-0.0550272
-0.00172683
-1.40255
0.192795
5.8203
-0.214777
-0.0164631
-1.49681
-1.38966
-1.49284
24.1224
-0.673178
-0.120585
-5.87577
-6.17273
-5.86631
-6.17091
24.1511
-0.648418
-0.119941
24.1778
-0.63734
-0.118391
24.2033
-0.629925
-0.116572
24.227
-0.624062
-0.114553
24.2491
-0.619723
-0.112344
24.2701
-0.616587
-0.110117
24.29
-0.614152
-0.1079
24.3091
-0.612199
-0.105807
24.3274
-0.610487
-0.103883
24.3448
-0.608848
-0.102177
24.3615
-0.607273
-0.100633
24.3776
-0.605627
-0.0993331
24.3932
-0.603867
-0.0981779
24.4082
-0.60193
-0.0972317
24.423
-0.600039
-0.0965286
24.4375
-0.597899
-0.0960967
24.4516
-0.595289
-0.0960754
-0.59144
-0.0967566
25.0048
-0.00079924
0.000450031
25.0101
0.0166608
0.000897585
25.0151
0.0373506
0.00135859
25.0191
0.0596979
0.00187477
25.0212
0.0884317
0.00242597
25.0265
0.122085
0.00306915
25.039
0.166922
0.0036536
25.0656
0.231242
0.00398475
6.275
0.332343
0.00368216
6.2828
6.27535
6.28517
-0.111969
6.28296
0.103646
0.000358898
-0.0447604
-1.57825
1.58001
0.0429959
4.02778e-06
-0.084405
-1.5989
1.61409
-0.000188937
0.0694123
-0.0258476
-1.71467
1.75352
-0.000841683
0.0556975
-0.0209756
-0.0259196
-0.0209605
0.10068
-1.71342
1.68388
-0.000973588
-0.0701553
0.103071
-1.60972
-0.00137061
1.59915
-0.0911283
0.0792599
-1.58455
-0.00169641
1.58156
-0.0745748
0.0581408
-1.57671
1.57572
-0.0552345
-0.0019085
0.0585693
-1.57381
1.57198
-0.0547383
-0.0019932
0.0525076
-1.5715
1.57084
-0.0498435
-0.00200355
0.0484828
-1.56991
1.56942
-0.0460084
-0.00199156
-1.56717
0.178934
6.26363
-0.159191
-0.0157497
-1.56671
-1.56692
-1.56682
25.0684
-0.540697
-0.128948
-6.26735
-6.26742
-6.26921
-6.26792
25.0704
-0.521706
-0.128666
25.0683
-0.507388
-0.127916
25.0652
-0.499664
-0.127111
25.0621
-0.49458
-0.126416
25.0594
-0.491175
-0.125794
25.0569
-0.488781
-0.125354
25.0545
-0.486753
-0.125044
25.0528
-0.485564
-0.124899
25.0514
-0.484206
-0.124898
25.0503
-0.482645
-0.125065
25.0497
-0.481458
-0.125213
25.0495
-0.479912
-0.125488
25.0492
-0.477927
-0.125734
25.0497
-0.476344
-0.126055
25.0505
-0.4744
-0.12646
25.0518
-0.472205
-0.126973
25.0537
-0.469499
-0.127675
-0.466496
-0.128507
25.0058
-0.00581743
0.000206778
25.0143
0.00773629
0.000427216
25.0273
0.0236383
0.000608943
25.0388
0.0474738
0.000733243
25.0543
0.0720767
0.000753198
25.0781
0.0976606
0.000566453
25.1165
0.12846
9.98632e-06
25.1804
0.168586
-0.00138908
6.32121
0.23072
-0.0041179
6.31934
6.32559
6.31988
-0.0887183
6.33751
0.0732508
-0.000839798
-0.0332195
6.41465
0.0876449
-0.00180249
-0.0344031
-0.0334003
-0.0340557
-6.36543
-0.0332129
6.51921
0.0749062
-0.00366998
-0.0258869
-0.0331401
-0.0258687
-6.47233
-0.00660832
-6.54993
6.51571
-0.00783718
-0.00651883
0.0158943
-0.00687467
0.0462067
0.0463756
-6.53696
6.51467
-0.126367
-0.00948255
0.0401836
0.0370973
0.034525
0.0559903
-6.44959
6.41147
-0.180369
-0.0117844
0.0565548
0.058354
0.0593909
0.0571868
-6.37118
6.3388
-0.177987
-0.0134477
0.0558854
0.0561949
0.054542
0.0472495
-6.3206
6.30936
-0.159139
-0.0146406
0.0462769
0.046092
0.0453944
0.045023
-6.30074
6.29492
-0.157391
-0.0153693
0.0447434
0.0445443
0.0442668
0.0417947
-6.29057
6.28528
-0.143811
-0.0157277
0.0412497
0.0412337
0.0405549
0.0386617
-6.28113
6.2758
-0.131109
-0.0158758
0.0381548
0.0380784
0.0374309
0.14222
-6.27435
6.27259
-0.124473
-0.0159749
25.071
-0.402076
-0.129258
-6.27018
-6.27028
-6.27041
-6.26951
25.0634
-0.385572
-0.128469
25.0593
-0.375584
-0.127725
25.0561
-0.369358
-0.127141
25.0537
-0.365525
-0.12665
25.0517
-0.362928
-0.126203
25.0501
-0.361365
-0.125802
25.049
-0.360282
-0.125446
25.0481
-0.359477
-0.125128
25.0475
-0.358751
-0.12484
25.0472
-0.357752
-0.124605
25.0472
-0.357138
-0.124357
25.0472
-0.355843
-0.124093
25.0482
-0.354954
-0.123899
25.0492
-0.353567
-0.123777
25.0503
-0.35183
-0.123738
25.0524
-0.3504
-0.123849
25.0557
-0.348633
-0.124187
-0.346987
-0.124808
25.0064
-0.0108229
5.06757e-05
25.0163
-0.00226077
6.73934e-05
25.0253
0.0146204
-1.11036e-05
25.042
0.0308899
-0.000197409
25.0688
0.0457392
-0.000633179
25.1026
0.0651829
-0.00145703
25.1506
0.0832063
-0.00289967
25.2177
0.106748
-0.00542948
25.3275
0.130474
-0.0097085
25.4335
0.143924
-0.016608
-0.0609408
-0.0565871
-0.0587424
-0.0573365
25.5824
0.130649
-0.027009
-0.0602404
-0.0635368
-0.0617657
-0.067166
25.7167
0.0510496
-0.0417771
-0.0410006
-0.0267661
-0.0449973
-0.0307621
25.5933
-0.161769
-0.059674
0.0232001
0.126514
0.0215089
0.173882
25.4991
-0.244585
-0.0787195
0.0859167
0.119687
0.101443
0.110611
25.429
-0.255249
-0.0947307
0.0855259
0.150913
0.0341937
0.149422
25.3423
-0.358123
-0.106528
0.137484
0.14025
0.135909
0.137489
25.2581
-0.326027
-0.113858
0.130639
0.133991
0.128297
0.131042
25.1924
-0.333889
-0.118124
0.132911
0.129564
0.129549
0.125586
25.1501
-0.310645
-0.120406
0.122069
0.118638
0.118494
0.114187
25.1272
-0.289779
-0.121534
0.110793
0.110364
0.10588
0.107196
25.1087
-0.273971
-0.122001
0.105653
0.104833
0.102734
0.101258
25.0919
-0.263301
-0.121967
25.0817
-0.253713
-0.121714
25.075
-0.247254
-0.121567
25.0698
-0.242589
-0.121613
25.0655
-0.239584
-0.121685
25.0625
-0.238026
-0.121839
25.0595
-0.236317
-0.122051
25.0572
-0.235718
-0.122302
25.0551
-0.234818
-0.122574
25.0537
-0.234484
-0.122838
25.0529
-0.233895
-0.123087
25.0521
-0.232958
-0.123312
25.052
-0.232398
-0.123425
25.0519
-0.231223
-0.12358
25.0522
-0.230187
-0.123698
25.0535
-0.229251
-0.123839
25.0553
-0.228189
-0.124054
25.0573
-0.226221
-0.124403
-0.224571
-0.124929
25.0067
-0.0155489
-9.36704e-05
25.0098
-0.00527202
-0.000206369
25.0176
0.00721005
-0.000456889
25.0373
0.011924
-0.000840631
25.063
0.0214573
-0.00157056
25.0928
0.0380816
-0.00281475
25.1412
0.0393301
-0.00479153
25.2031
0.0524777
-0.00789228
25.2832
0.0629559
-0.0127454
25.3798
0.066909
-0.0199045
25.4873
0.0529749
-0.0299505
25.567
0.0146642
-0.0434018
25.5436
-0.0792283
-0.0591239
25.5279
-0.153629
-0.0751964
25.404
-0.0422871
-0.0891536
25.3209
-0.175194
-0.099958
25.2707
-0.169014
-0.107004
25.2095
-0.161389
-0.111499
25.1652
-0.152363
-0.11405
25.1339
-0.143081
-0.115477
25.1111
-0.134927
-0.116251
25.0933
-0.128937
-0.11654
25.0804
-0.124198
-0.116692
25.071
-0.120981
-0.116794
25.064
-0.118662
-0.116979
25.0588
-0.117311
-0.117118
25.0544
-0.116226
-0.117331
25.0513
-0.115716
-0.117581
25.049
-0.115642
-0.117772
25.0473
-0.115161
-0.117956
25.0461
-0.115212
-0.118086
25.0452
-0.114752
-0.118162
25.0451
-0.114727
-0.118135
25.0449
-0.114193
-0.118057
25.0456
-0.11398
-0.11795
25.0465
-0.113241
-0.117805
25.0478
-0.112939
-0.117663
25.0496
-0.112347
-0.117586
25.0525
-0.11153
-0.117647
-0.111661
-0.11794
24.9869
-0.000155376
24.9819
-0.000299183
24.9897
-0.000640172
25.0025
-0.00105975
25.0257
-0.00195047
25.0669
-0.00332172
25.1115
-0.00547009
25.1724
-0.00879445
25.2489
-0.0138313
25.3364
-0.0209394
25.4197
-0.0305308
25.477
-0.0428231
25.4545
-0.0568748
25.3719
-0.0711674
25.4133
-0.0838822
25.3322
-0.0942497
25.2642
-0.101231
25.2082
-0.105584
25.1638
-0.108169
25.1303
-0.109665
25.1059
-0.110542
25.088
-0.111014
25.075
-0.111301
25.0655
-0.111491
25.0587
-0.111789
25.0534
-0.112092
25.0496
-0.112455
25.0468
-0.112907
25.0444
-0.113245
25.0429
-0.113595
25.0416
-0.113912
25.0409
-0.114111
25.0404
-0.114201
25.0404
-0.114233
25.0407
-0.114256
25.0417
-0.114212
25.0429
-0.114143
25.0447
-0.114113
25.0473
-0.114202
-0.114512
24.9954
0.00165407
0.00279956
24.9885
0.00444725
0.00573188
24.9774
0.00708864
0.0091205
24.9612
0.0103588
0.013266
24.9395
0.0134122
0.0185091
24.9098
0.0184307
0.0252872
24.8673
0.027056
0.0339986
24.8093
0.0373916
0.0450647
24.7528
0.0292693
0.0587913
24.7155
0.00172268
0.0754887
24.6897
-0.0192226
0.0944838
24.6269
0.00706236
0.115255
24.6558
-0.095274
0.136452
24.7749
-0.19564
0.156677
24.8099
-0.120013
0.173962
24.8369
-0.118515
0.1874
24.8627
-0.122266
0.197238
24.8838
-0.121199
0.204348
24.9017
-0.12055
0.209423
24.9293
-0.132136
0.213087
24.9563
-0.132879
0.215693
24.9768
-0.12737
0.217759
24.9926
-0.123449
0.219527
25.0055
-0.121241
0.221133
25.016
-0.119494
0.222655
25.0251
-0.118595
0.224118
25.0327
-0.1177
0.225515
25.0392
-0.11704
0.226819
25.0449
-0.116804
0.228044
25.0502
-0.116698
0.229187
25.0547
-0.116428
0.230207
25.0587
-0.116219
0.231097
25.0626
-0.116561
0.231821
25.0666
-0.116916
0.23245
25.0701
-0.116781
0.232874
25.0739
-0.117212
0.233185
25.0776
-0.117391
0.233203
25.0816
-0.11766
0.233094
25.0863
-0.118202
0.232649
-0.118615
0.231343
24.9956
0.00333308
0.00272959
24.9887
0.00888998
0.00558588
24.9771
0.0147488
0.0088969
24.9609
0.0207612
0.0129728
24.9388
0.0273447
0.0181552
24.9109
0.0350285
0.0249037
24.8774
0.0451264
0.0336539
24.8342
0.0596642
0.0449385
24.7707
0.0648841
0.0592478
24.6941
0.0414559
0.0769674
24.6499
-0.0226363
0.097774
24.5877
0.00929804
0.121066
24.6232
-0.202421
0.144926
24.7567
-0.412018
0.167615
24.8398
-0.295079
0.186435
24.9105
-0.288063
0.200738
24.9634
-0.279169
0.211116
25.0057
-0.271221
0.218434
25.0521
-0.277466
0.223634
25.0849
-0.277216
0.227251
25.1039
-0.265351
0.229819
25.117
-0.254927
0.231812
25.1254
-0.247071
0.233543
25.1316
-0.243172
0.235072
25.1364
-0.240645
0.236473
25.1395
-0.238509
0.237787
25.1414
-0.236912
0.239052
25.1432
-0.236567
0.240269
25.1443
-0.236093
0.241439
25.1448
-0.235874
0.242545
25.1453
-0.236094
0.243568
25.146
-0.236454
0.244488
25.1461
-0.236672
0.245336
25.1462
-0.23745
0.246038
25.1469
-0.238294
0.246604
25.1473
-0.238701
0.247005
25.1482
-0.23969
0.247207
25.1498
-0.240772
0.247187
25.1516
-0.241425
0.246896
-0.242555
0.245705
24.9957
0.00503172
0.00258479
24.989
0.0132475
0.00529033
24.9776
0.0223561
0.00844209
24.9609
0.0319094
0.0123531
24.9378
0.0425513
0.0173808
24.9075
0.0542404
0.0240148
24.8691
0.0683018
0.0327959
24.8221
0.0857329
0.0444153
24.7558
0.102608
0.0596689
24.6602
0.0986363
0.079264
24.5812
0.00579799
0.103434
-0.00427646
0.00642787
-0.00246658
24.7134
-0.0375821
0.13102
-0.0583155
-0.035896
-0.0561633
24.5714
0.0215451
0.159657
-0.0951476
0.024349
-0.0916171
24.7349
-0.21477
0.186824
-0.124447
-0.210762
-0.119709
24.8279
-0.129207
0.207505
-0.12204
-0.124339
-0.116569
24.8907
-0.118837
0.222428
-0.117481
-0.113788
-0.111805
24.9468
-0.11608
0.233025
-0.115424
-0.110678
-0.109683
25.0136
-0.118104
0.240338
-0.116795
-0.112591
-0.11102
25.057
-0.114289
0.245364
-0.112792
-0.108904
-0.107869
25.0835
-0.110449
0.248684
-0.108656
-0.105785
-0.103586
25.1024
-0.409713
0.250799
25.1153
-0.393927
0.252472
25.1235
-0.381848
0.253956
25.1293
-0.376515
0.255959
25.1336
-0.372938
0.257525
25.1363
-0.369969
0.259078
25.1382
-0.367558
0.259909
25.1387
-0.366127
0.260829
25.1386
-0.365205
0.261625
25.1387
-0.365448
0.262342
25.1378
-0.364768
0.263
25.1368
-0.365409
0.263624
25.1363
-0.366219
0.263979
25.1351
-0.366876
0.264803
25.1338
-0.368079
0.265315
25.133
-0.369363
0.265742
25.1324
-0.37094
0.266024
25.1321
-0.372611
0.266091
25.1328
-0.374385
0.265901
-0.375988
0.264817
24.9966
0.00637754
0.00236315
24.9903
0.0174848
0.00483839
24.9791
0.0299588
0.00773372
24.9627
0.0432035
0.0113562
24.9395
0.0583763
0.0160709
24.9061
0.0771445
0.0223815
24.861
0.0988275
0.0309598
24.8025
0.123758
0.04265
24.7341
0.142534
0.0586471
6.14202
0.0382109
0.0804176
0.0535804
0.0388026
0.0540745
6.16224
6.1422
6.16187
-0.011613
6.12472
0.0171005
0.0176343
-0.0153632
-6.11242
6.10025
-0.033405
0.023305
-0.0193764
-6.1039
6.09634
0.018958
0.0294077
-0.0235697
-6.11152
6.14354
-0.259041
0.0357124
-0.0268443
-6.16166
6.17587
-0.157207
0.0405953
-0.0290625
-6.18926
6.20051
-0.144909
0.0439069
-0.0305973
-6.21184
6.22659
-0.146482
0.046285
-0.0316558
-6.23978
6.24734
-0.141966
0.0479645
-0.0323794
-6.25356
6.2591
-0.136539
0.0490757
-0.0328864
-6.26321
6.26754
-0.131765
0.0498525
25.1143
-0.144678
0.279918
-0.144538
-0.143103
-0.140653
-6.27171
-6.27567
-6.2715
-6.27543
25.122
-0.54482
0.281249
25.1255
-0.528124
0.281833
25.128
-0.522742
0.283816
25.1283
-0.517694
0.285453
25.1264
-0.513266
0.287101
25.1238
-0.510294
0.28788
25.1201
-0.507765
0.288588
25.1153
-0.505764
0.289041
25.1093
-0.504763
0.289322
25.1031
-0.503756
0.289503
25.0963
-0.503711
0.289645
25.0888
-0.503765
0.289512
25.0812
-0.504682
0.289912
25.0735
-0.505904
0.289958
25.0659
-0.507714
0.29005
25.0581
-0.509292
0.289895
25.0508
-0.511652
0.289486
25.045
-0.51484
0.28866
-0.51709
0.286678
24.9983
0.00610289
0.00206497
24.9932
0.020795
0.00422538
24.9835
0.0364765
0.00675434
24.9687
0.0534503
0.00993158
24.9464
0.0741534
0.0140977
24.9139
0.100559
0.0194724
24.8647
0.134799
0.0274953
24.7915
0.178356
0.038299
6.17296
0.228533
0.0536507
6.16593
6.17353
6.16625
-0.00789073
6.15778
0.0492934
0.0120204
-0.0110766
6.13167
0.0169496
-6.16052
0.0200528
0.0114152
0.0201452
0.0112705
-0.0398927
-0.0151355
-6.07851
6.04488
0.0233261
-0.00228803
0.00329049
-0.00239342
0.00335977
0.0233225
-0.0201257
-6.04304
6.0564
0.0310014
0.0517264
-0.0408987
0.0512769
-0.0406415
-0.0459789
-0.0255951
-6.09636
6.13698
0.0390169
-0.0517393
-0.12982
-0.0524369
-0.129307
0.309002
-0.0288633
-6.16727
6.17837
0.0437561
-0.0509711
-0.0546701
-0.0517616
-0.0539093
0.185204
-0.0306651
-6.19185
6.20646
0.0465497
-0.0521023
-0.0519404
-0.0528348
-0.0512268
0.177639
-0.0318705
-6.22094
6.23354
0.0485797
-0.0503013
-0.0510823
-0.0510935
-0.0503442
0.173531
-0.0326947
-6.2438
6.2515
0.0499549
-0.0472031
-0.0482174
-0.048282
-0.047415
0.16611
-0.033319
-6.25844
6.26322
0.0509025
-0.0447286
-0.0457548
-0.0455562
-0.04494
0.158547
-0.0338841
-6.2678
6.27042
0.051636
-0.0426118
-0.0435543
-0.043145
-0.0427767
0.151661
-6.27331
-0.0344465
6.27569
-0.165066
0.0524349
25.0655
-0.663906
0.292396
-6.27711
-6.27118
-6.27768
-6.2718
25.04
-0.651904
0.291346
25.0127
-0.643041
0.289952
24.9849
-0.63551
0.287589
24.9583
-0.630017
0.284728
24.9322
-0.625349
0.281575
24.9073
-0.620935
0.277533
24.883
-0.616961
0.273545
24.8589
-0.613478
0.269538
24.8355
-0.610753
0.26566
24.8125
-0.608959
0.261791
24.79
-0.608093
0.258748
24.7677
-0.608049
0.25572
24.7463
-0.609164
0.252993
24.7254
-0.61094
0.250473
24.7059
-0.613472
0.247957
24.6879
-0.616755
0.24522
24.6719
-0.621185
0.242026
-0.627542
0.237692
25.0021
0.00262823
0.00170505
24.9998
0.0215163
0.00347349
24.9921
0.041635
0.00552719
24.98
0.0617568
0.00809216
24.9624
0.086334
0.0114376
24.9363
0.119542
0.0154312
24.8938
0.166519
0.0221062
24.8221
0.234777
0.0306524
6.17226
0.340695
0.0430143
6.17145
6.1725
6.17157
-0.00613703
-0.0642907
6.14671
0.0863798
0.00956909
-0.00197909
-0.0192325
-1.52789
1.52263
0.0238312
0.00262994
-0.00287336
-0.018271
-1.50426
1.49175
0.0299159
0.0036924
-0.00431856
-1.4692
0.0529127
1.47914
-0.0640857
0.00549988
-0.00626288
-1.52812
0.154149
1.53944
-0.16714
0.00789014
-0.00722436
-1.53566
0.0613381
-0.0653802
1.53759
0.00931028
-1.54678
-0.00721207
0.0615823
-0.0668571
0.00969614
1.54956
-0.00715942
0.0595093
-1.5554
1.5569
-0.063743
0.00989302
-0.00722365
0.0551605
-1.56001
1.56059
-0.0584863
0.00995971
-0.00737732
0.0518013
-1.56139
1.56152
-0.0544595
0.00989909
-0.00759014
0.048679
-1.56115
1.56087
-0.0505674
0.00975667
-1.5551
-0.0290378
0.178798
6.16171
-0.169839
0.0443672
-1.5377
-1.55523
-1.53798
23.8165
-0.776373
0.150329
-6.10176
-5.79317
-6.09964
-5.79106
23.8321
-0.749645
0.151044
23.8454
-0.737166
0.149696
23.8585
-0.726839
0.146572
23.8711
-0.718097
0.14267
23.8832
-0.710093
0.138477
23.8954
-0.702576
0.13342
23.9075
-0.695589
0.128341
23.9196
-0.689335
0.123127
23.9317
-0.683946
0.117866
23.9438
-0.679546
0.112405
23.9557
-0.676296
0.107517
23.9677
-0.674105
0.102513
23.9796
-0.672929
0.0976735
23.9917
-0.672636
0.0929334
24.0038
-0.673058
0.0881972
24.016
-0.674021
0.0832544
24.028
-0.675364
0.0777209
-0.676977
0.0708729
25.009
0.00134216
0.00128644
25.0098
0.0195633
0.00261649
25.0064
0.0430668
0.00411662
24.9996
0.065665
0.00593748
24.9897
0.0922896
0.00823437
24.9761
0.128125
0.0107038
24.9567
0.17849
0.0150676
24.9264
0.255025
0.0200492
6.21383
0.380525
0.0267391
6.22217
6.21389
6.22257
-0.00358925
-0.104449
6.19835
0.117851
0.00565666
-0.00106392
-0.0390251
-1.54202
1.53586
0.0448172
0.00142295
-0.00122409
-0.0812725
-1.50586
1.48741
0.0992946
0.00163527
-0.000149171
0.00453415
-0.0748255
0.075053
-0.00478475
0.000172461
-0.000535752
-0.223124
0.0154817
-0.0262222
-0.00272063
0.237122
-1.24339
0.00556439
0.0753929
-0.0919309
-0.00944682
1.26382
0.00686688
0.0669083
-1.30249
1.30839
-0.0709649
-0.00870921
0.00750017
0.0637786
-1.32499
1.33062
-0.0684864
-0.00842379
0.0078598
0.0572973
-1.34371
1.34776
-0.0610136
-0.00819258
0.00797082
0.0519716
-1.35752
1.36193
-0.0564322
-0.00791785
-1.3963
0.0296768
0.202105
5.82352
-0.220268
-0.0434733
-1.49691
-1.40097
-1.49737
24.1282
-0.684311
-0.243255
-5.87788
-6.16984
-5.87769
-6.17215
24.153
-0.656103
-0.23828
24.1743
-0.645518
-0.231396
24.193
-0.637688
-0.224365
24.2088
-0.631179
-0.21727
24.2227
-0.626072
-0.210333
24.2361
-0.622181
-0.203887
24.2499
-0.619066
-0.198184
24.2647
-0.616561
-0.193372
24.2808
-0.61448
-0.189482
24.2985
-0.612903
-0.186492
24.3177
-0.611865
-0.18428
24.3382
-0.611186
-0.182802
24.3595
-0.610484
-0.181884
24.3809
-0.609851
-0.181465
24.4021
-0.609207
-0.181517
24.4226
-0.608448
-0.18217
24.4417
-0.607021
-0.183563
-0.603626
-0.18575
25.0083
-0.00373579
0.000875917
25.0154
0.0116457
0.00172817
25.0221
0.0350689
0.00263881
25.026
0.0599233
0.00365968
25.0254
0.0904559
0.00481279
25.0299
0.120752
0.00582691
25.0421
0.162493
0.00734166
25.0708
0.221941
0.00828459
6.27643
0.311313
0.00834191
6.28875
6.27795
6.29226
-0.000798678
-0.109362
6.28409
0.101235
0.00128539
-5.78597e-05
-0.0441826
-1.57806
1.57981
0.042423
7.94774e-05
0.0006177
-0.0811631
-1.60035
1.61689
0.0647222
-0.000692316
0.00303711
-0.0263527
-1.71268
1.75058
0.058321
-0.00164725
-0.021818
-0.0272679
-0.0221377
0.00413709
0.112212
-1.711
1.68012
-0.0803274
-0.00509701
0.108217
-1.60988
0.0051877
1.59888
-0.0954585
-0.00690096
0.00620637
0.077953
-1.58393
-0.00833202
1.58169
-0.073571
0.00690658
0.0575908
-1.57811
1.5765
-0.0537222
-0.00915727
0.00728536
0.0587054
-1.57536
1.57384
-0.0549507
-0.00951894
0.00749986
0.052335
-1.5728
1.57209
-0.049479
-0.00964778
0.00758307
0.0482219
-1.56918
1.56946
-0.0464587
-0.00962284
-1.56949
0.0312351
0.181747
6.27253
-0.158301
-0.0480512
-1.56961
-1.56968
-1.57036
25.0789
-0.524944
-0.270009
-6.27499
-6.26869
-6.27972
-6.2737
25.0779
-0.515954
-0.267819
25.074
-0.504555
-0.26502
25.0701
-0.497934
-0.262939
25.0665
-0.492731
-0.26122
25.0638
-0.489543
-0.259706
25.0618
-0.487042
-0.258451
25.0604
-0.485186
-0.257504
25.0595
-0.483734
-0.256883
25.059
-0.48228
-0.256587
25.0588
-0.481166
-0.256608
25.0593
-0.480388
-0.257145
25.0596
-0.479542
-0.257463
25.0597
-0.47806
-0.258235
25.0602
-0.477249
-0.25921
25.0609
-0.475803
-0.260484
25.0616
-0.474042
-0.262146
25.0626
-0.471388
-0.264279
-0.468313
-0.266691
25.007
-0.00827922
0.000463026
25.0171
0.00102232
0.000888148
25.0312
0.0202053
0.00124008
25.0397
0.0505866
0.00150275
25.0574
0.0717495
0.00157307
25.081
0.0962133
0.00125384
25.1191
0.123917
0.000188384
25.1848
0.156934
-0.00234238
6.32995
0.197939
-0.00754607
6.31906
6.33435
6.31791
-0.0859657
0.00156052
6.34835
0.0683652
-0.00238703
-0.0329179
0.00361144
6.422
0.0876529
-0.00521143
-0.0310278
-0.0331538
-0.0301913
-6.38081
-0.0292902
0.00741305
6.49388
0.08072
-0.0106509
-0.028611
-0.0283752
-0.0308885
-6.45412
-0.0086948
0.0129647
-6.54219
6.50122
-0.060496
-0.0193057
0.0636724
-0.00995977
0.0630124
0.0362524
0.0195406
-6.49383
6.47524
-0.148143
-0.029133
0.0528045
0.0354888
0.052014
0.0596363
-6.45134
0.025066
6.40726
-0.187569
-0.0372761
0.058834
0.0631491
0.0623511
0.0574057
0.0287161
-6.36671
6.33836
-0.181317
-0.0428057
0.055401
0.0564537
0.0544867
0.0468649
0.031072
-6.32421
6.31688
-0.161742
-0.0463805
0.0460741
0.0460484
0.0453557
0.0451785
0.0324043
-6.3126
6.30472
-0.156006
-0.0484147
0.0455547
0.0444037
0.0447668
0.0440501
0.0329311
-6.29617
6.28739
-0.144507
-0.0493292
0.041495
0.0433643
0.0408187
0.0388454
0.0330478
-6.28015
6.27256
-0.126752
-0.0495684
0.0358486
0.0392478
0.0369635
0.137792
-6.27128
0.0331168
6.27177
-0.121872
-0.0494991
25.0726
-0.382061
-0.266665
-6.27042
-6.26859
-6.27072
-6.26823
25.0662
-0.373754
-0.264241
25.0623
-0.366302
-0.262073
25.0589
-0.361089
-0.260638
25.0567
-0.357809
-0.259396
25.0546
-0.355391
-0.258257
25.0532
-0.354169
-0.257255
25.0524
-0.35338
-0.256413
25.0516
-0.352331
-0.255737
25.0515
-0.351871
-0.255224
25.0515
-0.350903
-0.254833