/*--------------------------------*- C++ -*----------------------------------*\
| =========                 |                                                 |
| \\      /  F ield         | OpenFOAM: The Open Source CFD Toolbox           |
|  \\    /   O peration     | Version:  2306                                  |
|   \\  /    A nd           | Website:  www.openfoam.com                      |
|    \\/     M anipulation  |                                                 |
\*---------------------------------------------------------------------------*/
FoamFile
{
    version     2.0;
    format      ascii;
    arch        "LSB;label=32;scalar=64";
    class       volVectorField;
    location    "1.4";
    object      U;
}
// * * * * * * * * * * * * * * * * * * * * * * * * * * * * * * * * * * * * * //

dimensions      [0 1 -1 0 0 0 0];

internalField   nonuniform List<vector> 
111542
(
(99.9932 0.0053348 0.00299181)
(99.9705 0.0108276 0.006239)
(99.9286 0.0164647 0.00983892)
(99.8663 0.0224132 0.0142399)
(99.7822 0.0284273 0.0198108)
(99.6742 0.0337325 0.0269896)
(99.5413 0.0364596 0.036035)
(99.3858 0.0336153 0.0474395)
(99.2171 0.0205148 0.0617097)
(99.0554 -0.0093315 0.0788917)
(98.9341 -0.061678 0.0985728)
(98.894 -0.134247 0.119949)
(98.9615 -0.208851 0.142107)
(99.1276 -0.265641 0.16293)
(99.3476 -0.293693 0.180646)
(99.5729 -0.302471 0.194698)
(99.7763 -0.300865 0.205075)
(99.95 -0.293565 0.212555)
(100.094 -0.283609 0.217903)
(100.209 -0.273227 0.221908)
(100.3 -0.263995 0.224865)
(100.369 -0.256346 0.227258)
(100.42 -0.250173 0.229575)
(100.458 -0.245901 0.231746)
(100.486 -0.243321 0.233898)
(100.508 -0.241904 0.236268)
(100.523 -0.241658 0.238608)
(100.535 -0.242339 0.240878)
(100.542 -0.243521 0.243146)
(100.548 -0.244962 0.24531)
(100.552 -0.24652 0.247233)
(100.554 -0.248147 0.24876)
(100.556 -0.249623 0.249973)
(100.558 -0.250896 0.250853)
(100.56 -0.251985 0.251356)
(100.563 -0.252949 0.251457)
(100.568 -0.253901 0.2511)
(100.573 -0.254766 0.250454)
(100.582 -0.255629 0.249588)
(100.597 -0.256752 0.248615)
(99.9935 0.0158967 0.00293099)
(99.9712 0.0322121 0.00603679)
(99.9298 0.0493608 0.00958951)
(99.868 0.06776 0.013934)
(99.7831 0.0868512 0.0194308)
(99.6718 0.104567 0.026507)
(99.5306 0.115979 0.0356093)
(99.3592 0.11222 0.0472611)
(99.1634 0.0785372 0.0619551)
(98.9624 -0.00635786 0.0799016)
(98.7975 -0.160138 0.10091)
(98.7354 -0.376528 0.12345)
(98.821 -0.602914 0.147606)
(99.0327 -0.76684 0.170609)
(99.2983 -0.848791 0.189942)
(99.5528 -0.878102 0.204759)
(99.7721 -0.876918 0.21551)
(99.9539 -0.858497 0.22318)
(100.101 -0.832129 0.228692)
(100.216 -0.803562 0.232747)
(100.305 -0.776878 0.235827)
(100.37 -0.754989 0.238433)
(100.419 -0.738359 0.240854)
(100.454 -0.726848 0.243165)
(100.479 -0.718536 0.245475)
(100.498 -0.712096 0.247893)
(100.512 -0.70769 0.250387)
(100.522 -0.705216 0.252898)
(100.529 -0.704125 0.255356)
(100.534 -0.704013 0.257654)
(100.537 -0.704625 0.259676)
(100.539 -0.705807 0.261333)
(100.54 -0.707223 0.262595)
(100.542 -0.70875 0.263441)
(100.544 -0.710395 0.263857)
(100.546 -0.712231 0.263848)
(100.549 -0.714401 0.26343)
(100.555 -0.716822 0.262675)
(100.562 -0.719564 0.261662)
(100.574 -0.722737 0.260573)
(99.9938 0.0260836 0.0027768)
(99.9726 0.0529641 0.00570468)
(99.9329 0.0819806 0.00908315)
(99.8724 0.114056 0.01324)
(99.7874 0.148978 0.0185445)
(99.6714 0.184456 0.0254611)
(99.5168 0.214192 0.0345452)
(99.3158 0.224502 0.0464496)
(99.0658 0.188576 0.0618824)
(98.7837 0.0575521 0.0814567)
(98.5293 -0.278945 0.105552)
(98.415 -0.744794 0.133436)
(98.5374 -1.16803 0.160107)
(98.8437 -1.41247 0.185855)
(99.1918 -1.5128 0.206961)
(99.4968 -1.54131 0.222407)
(99.7455 -1.52382 0.233175)
(99.943 -1.48311 0.24066)
(100.096 -1.43392 0.245994)
(100.212 -1.38343 0.249914)
(100.297 -1.33808 0.252907)
(100.357 -1.29789 0.255578)
(100.4 -1.27269 0.258221)
(100.431 -1.261 0.260961)
(100.455 -1.25531 0.263865)
(100.472 -1.252 0.266929)
(100.484 -1.2505 0.270082)
(100.491 -1.25058 0.273215)
(100.495 -1.25168 0.276202)
(100.497 -1.25336 0.278908)
(100.497 -1.25533 0.281202)
(100.495 -1.2574 0.282975)
(100.493 -1.2594 0.284157)
(100.49 -1.2613 0.28472)
(100.488 -1.26312 0.284663)
(100.485 -1.26502 0.284017)
(100.484 -1.2672 0.282831)
(100.484 -1.26979 0.281181)
(100.486 -1.27283 0.279196)
(100.493 -1.27605 0.277185)
(99.9945 0.0354391 0.0025375)
(99.9754 0.072343 0.00520602)
(99.9392 0.113167 0.0082955)
(99.883 0.160037 0.0121271)
(99.8011 0.214224 0.0170701)
(99.6841 0.275282 0.023607)
(99.5174 0.339054 0.0323685)
(99.2799 0.393031 0.0441497)
(98.9426 0.407526 0.0599326)
(98.4406 0.207332 0.0809153)
(98.1809 0.0280507 0.0876013)
(97.8297 -0.630462 0.103153)
(97.8902 -1.43918 0.117464)
(98.3663 -1.96421 0.130556)
(98.8701 -2.12491 0.143561)
(99.2688 -2.16161 0.15207)
(99.5914 -2.12591 0.157185)
(99.8382 -2.05292 0.160132)
(100.023 -1.97027 0.161904)
(100.162 -1.89278 0.163198)
(100.336 -1.9434 0.271705)
(100.379 -1.86678 0.276)
(100.394 -1.81296 0.279579)
(100.401 -1.78139 0.28311)
(100.409 -1.76202 0.286974)
(100.411 -1.75091 0.291055)
(100.406 -1.74617 0.295098)
(100.396 -1.74589 0.298895)
(100.381 -1.74844 0.302275)
(100.363 -1.75272 0.305081)
(100.342 -1.75795 0.307177)
(100.319 -1.76359 0.308461)
(100.295 -1.76926 0.308874)
(100.269 -1.77477 0.308402)
(100.243 -1.78009 0.307069)
(100.216 -1.78535 0.304925)
(100.191 -1.7908 0.302025)
(100.166 -1.79677 0.298448)
(100.144 -1.80341 0.294331)
(100.119 -1.80993 0.290092)
(99.9955 0.0432358 0.00221426)
(99.98 0.0887649 0.00453371)
(99.9502 0.140382 0.00721764)
(99.9029 0.201974 0.0105583)
(99.8316 0.277444 0.0148939)
(99.7246 0.370627 0.0206679)
(99.5623 0.484474 0.0284866)
(99.3118 0.617873 0.0391339)
(98.8676 0.757807 0.0536197)
(98.5217 0.766664 0.0588546)
(97.7042 0.379474 0.0717955)
(96.8906 -0.685358 0.0884568)
(96.9708 -2.34696 0.10318)
(98.0863 -2.97518 0.116071)
(98.815 -3.02892 0.131239)
(99.2943 -2.99614 0.13884)
(99.6662 -2.88202 0.142156)
(99.9215 -2.74579 0.143637)
(100.096 -2.61489 0.144603)
(100.211 -2.5038 0.14607)
(100.287 -2.43587 0.149298)
(100.209 -2.55165 0.288039)
(100.083 -2.52896 0.29447)
(99.9623 -2.49748 0.298704)
(99.8529 -2.46479 0.301754)
(99.7467 -2.43797 0.303905)
(99.6417 -2.41752 0.305228)
(99.5387 -2.40186 0.30581)
(99.4383 -2.38983 0.305694)
(99.3408 -2.38068 0.304841)
(99.2467 -2.37382 0.303151)
(99.1563 -2.3687 0.300515)
(99.0702 -2.36482 0.296844)
(98.9887 -2.36184 0.292096)
(98.9119 -2.35955 0.286286)
(98.84 -2.35793 0.27947)
(98.773 -2.35718 0.271712)
(98.7114 -2.35783 0.263102)
(98.6565 -2.36101 0.253792)
(98.6032 -2.36936 0.24433)
(99.997 0.0485502 0.00181486)
(99.9867 0.10019 0.00370391)
(99.9666 0.160004 0.00586934)
(99.934 0.233747 0.00854488)
(99.8832 0.328421 0.0119932)
(99.8038 0.45353 0.0165459)
(99.6765 0.622987 0.0226429)
(99.4646 0.85749 0.0308148)
(99.0441 1.18917 0.0416601)
(98.6337 1.35418 0.0458758)
(97.6764 1.50231 0.0436288)
(95.5563 0.744245 0.039856)
(94.3231 -3.40509 0.0548597)
(98.0938 -4.74087 0.0465684)
(98.6368 -4.00589 0.0627331)
(99.2328 -3.94686 0.085288)
(99.6255 -3.73884 0.114259)
(99.7963 -3.5078 0.130226)
(99.8397 -3.29929 0.126263)
(99.7931 -3.10137 0.106505)
(98.6988 -2.80775 0.121651)
(95.1445 -2.50717 0.154854)
(95.2181 -2.57686 0.16143)
(95.3039 -2.61121 0.163044)
(95.3725 -2.6287 0.160365)
(95.4264 -2.6409 0.15411)
(95.4729 -2.65047 0.145111)
(95.516 -2.65787 0.134258)
(95.5574 -2.66369 0.122418)
(95.5983 -2.66847 0.110358)
(95.64 -2.67247 0.0986935)
(95.6833 -2.67569 0.0878711)
(95.7287 -2.67803 0.0781453)
(95.7764 -2.67936 0.0696084)
(95.8262 -2.67964 0.0622025)
(95.8779 -2.67895 0.0557364)
(95.931 -2.67757 0.0499138)
(95.985 -2.67606 0.0443571)
(96.0386 -2.67563 0.0386819)
(96.0992 -2.67897 0.0328253)
(99.9989 0.050505 0.00137053)
(99.995 0.10461 0.00276651)
(99.9874 0.168235 0.00432951)
(99.9746 0.248397 0.00620971)
(99.9541 0.354289 0.0085504)
(99.921 0.499707 0.0115058)
(99.8673 0.706994 0.0152246)
(99.7785 1.01517 0.01976)
(99.6074 1.49833 0.0248706)
(99.3403 1.90287 0.0269013)
(98.6234 2.84993 0.0238446)
(95.4817 5.88444 0.0194645)
(77.0233 -4.21319 0.0429839)
(102.582 -10.2753 0.0237366)
(58.4569 -5.20108 -0.175285)
(77.2573 -4.84421 -0.214834)
(81.5949 -4.23913 -0.158619)
(84.3115 -3.88346 -0.0912526)
(86.0732 -3.56735 -0.0375069)
(87.3759 -3.32815 0.00453745)
(92.7499 -3.61291 -0.100237)
(96.3503 -3.32584 -0.254376)
(96.4813 -3.2105 -0.259657)
(96.6215 -3.12636 -0.262039)
(96.7366 -3.06328 -0.26307)
(96.835 -3.01305 -0.263428)
(96.9261 -2.9718 -0.263303)
(97.0133 -2.9374 -0.262744)
(97.0967 -2.90826 -0.26173)
(97.1762 -2.88312 -0.260186)
(97.2521 -2.86096 -0.258029)
(97.3246 -2.84099 -0.2552)
(97.3939 -2.82259 -0.251697)
(97.4603 -2.80532 -0.24757)
(97.5243 -2.78887 -0.24293)
(97.5862 -2.77303 -0.237944)
(97.6466 -2.75763 -0.232864)
(97.7057 -2.74243 -0.228011)
(97.7637 -2.72679 -0.223835)
(97.8346 -2.7086 -0.221165)
(100.001 0.0485441 0.000959082)
(100.004 0.100693 0.00183985)
(100.01 0.162483 0.00275986)
(100.019 0.241027 0.00378114)
(100.033 0.345693 0.00491285)
(100.054 0.490313 0.00610593)
(100.089 0.696544 0.0071932)
(100.153 1.00042 0.00773706)
(100.301 1.46436 0.00673387)
(100.353 1.87776 0.00629116)
(100.637 2.86824 0.00210227)
(102.487 5.40263 -0.00567182)
(111.27 3.85542 -0.0260117)
(109.111 -6.79505 0.0270759)
(102.803 -6.84972 -0.0326271)
(101.121 -5.05458 -0.0573093)
(100.657 -4.05786 -0.0681667)
(100.476 -3.49924 -0.069835)
(100.39 -3.16199 -0.0664798)
(100.327 -2.95632 -0.0620364)
(100.247 -2.70805 -0.132606)
(100.28 -2.29397 -0.259744)
(100.268 -2.18777 -0.260733)
(100.257 -2.12759 -0.261292)
(100.248 -2.09573 -0.262249)
(100.237 -2.07794 -0.263675)
(100.226 -2.06818 -0.265423)
(100.216 -2.06371 -0.267423)
(100.208 -2.06249 -0.269624)
(100.201 -2.06292 -0.27192)
(100.195 -2.06387 -0.274149)
(100.19 -2.06463 -0.276136)
(100.188 -2.0648 -0.277718)
(100.186 -2.06421 -0.278778)
(100.186 -2.0628 -0.279269)
(100.187 -2.06055 -0.279227)
(100.19 -2.05745 -0.278785)
(100.194 -2.05324 -0.278153)
(100.201 -2.04722 -0.277581)
(100.214 -2.03757 -0.277163)
(100.003 0.0425217 0.000466233)
(100.012 0.0882681 0.00085248)
(100.031 0.142506 0.00118286)
(100.061 0.21132 0.00140599)
(100.106 0.302369 0.0014112)
(100.174 0.425951 0.000984507)
(100.278 0.596343 -0.00028528)
(100.447 0.83304 -0.00314557)
(100.768 1.16028 -0.00898217)
(100.997 1.40032 -0.0112341)
(101.859 1.85545 -0.0191376)
(103.487 1.74899 -0.0338756)
(105.277 -0.283633 -0.0520502)
(104.807 -2.88081 -0.0326985)
(102.991 -3.60196 -0.0528139)
(101.76 -3.37867 -0.0706056)
(101.124 -3.01636 -0.0815263)
(100.785 -2.70661 -0.0877194)
(100.591 -2.4717 -0.0913481)
(100.466 -2.2957 -0.0938277)
(100.38 -2.15602 -0.0961607)
(100.29 -1.86554 -0.254428)
(100.259 -1.83053 -0.253788)
(100.237 -1.80762 -0.253272)
(100.223 -1.79411 -0.253379)
(100.213 -1.78558 -0.254057)
(100.205 -1.77942 -0.255074)
(100.198 -1.77456 -0.256217)
(100.193 -1.77029 -0.257302)
(100.189 -1.76601 -0.258172)
(100.186 -1.76128 -0.25871)
(100.184 -1.75584 -0.258855)
(100.183 -1.74959 -0.258601)
(100.184 -1.74253 -0.257994)
(100.186 -1.73465 -0.25713)
(100.189 -1.72603 -0.256146)
(100.194 -1.71667 -0.255213)
(100.201 -1.70653 -0.254529)
(100.211 -1.6956 -0.254315)
(100.232 -1.6842 -0.254857)
(100.004 0.0329629 0.000102489)
(100.019 0.068447 0.000129947)
(100.048 0.110375 -4.72577e-05)
(100.094 0.163153 -0.000516227)
(100.162 0.231893 -0.00144883)
(100.262 0.322484 -0.00317368)
(100.409 0.441201 -0.00623164)
(100.629 0.592397 -0.0114931)
(100.967 0.771963 -0.0203626)
(101.457 0.854169 -0.0346107)
(102.101 0.752177 -0.0559883)
(102.78 0.216303 -0.0856189)
(103.136 -0.779943 -0.119575)
(102.882 -1.61407 -0.15078)
(102.231 -1.91799 -0.181985)
(101.595 -1.91752 -0.206494)
(101.147 -1.82437 -0.222186)
(100.858 -1.7119 -0.231329)
(100.666 -1.60543 -0.236521)
(100.533 -1.51189 -0.239361)
(100.443 -1.43202 -0.240784)
(100.382 -1.36263 -0.241341)
(100.34 -1.30823 -0.241565)
(100.31 -1.26547 -0.241928)
(100.287 -1.23317 -0.242623)
(100.269 -1.20944 -0.243672)
(100.254 -1.19205 -0.245024)
(100.242 -1.17924 -0.246584)
(100.232 -1.16968 -0.248236)
(100.223 -1.16231 -0.249856)
(100.217 -1.15628 -0.251336)
(100.212 -1.15097 -0.252591)
(100.208 -1.14594 -0.253569)
(100.206 -1.14089 -0.254251)
(100.206 -1.13562 -0.254667)
(100.207 -1.13003 -0.254879)
(100.21 -1.12408 -0.254994)
(100.215 -1.11774 -0.255151)
(100.223 -1.11109 -0.255529)
(100.235 -1.10446 -0.256357)
(100.005 0.0208312 -0.000190362)
(100.024 0.043158 -0.000494037)
(100.06 0.0695312 -0.00104434)
(100.116 0.102325 -0.00198296)
(100.198 0.144452 -0.00356167)
(100.316 0.198338 -0.00614472)
(100.481 0.265418 -0.0103029)
(100.71 0.343087 -0.0168251)
(101.021 0.418175 -0.0267949)
(101.424 0.450927 -0.0414575)
(101.891 0.384779 -0.0619923)
(102.321 0.145042 -0.0890092)
(102.541 -0.278046 -0.120031)
(102.42 -0.708289 -0.150504)
(102.028 -0.950985 -0.178126)
(101.566 -1.00732 -0.199722)
(101.187 -0.97465 -0.214639)
(100.915 -0.916416 -0.223966)
(100.721 -0.856594 -0.22959)
(100.579 -0.802329 -0.232883)
(100.474 -0.756695 -0.234729)
(100.398 -0.722822 -0.235731)
(100.341 -0.70013 -0.236387)
(100.299 -0.68609 -0.236988)
(100.267 -0.678507 -0.237701)
(100.243 -0.675641 -0.238593)
(100.225 -0.675851 -0.239654)
(100.211 -0.677815 -0.240816)
(100.2 -0.680623 -0.24198)
(100.192 -0.683658 -0.243039)
(100.186 -0.68648 -0.243904)
(100.182 -0.688813 -0.244511)
(100.18 -0.6905 -0.244826)
(100.179 -0.691519 -0.24485)
(100.18 -0.691607 -0.244653)
(100.183 -0.690947 -0.244285)
(100.187 -0.689623 -0.243841)
(100.194 -0.687692 -0.243462)
(100.203 -0.68525 -0.243344)
(100.222 -0.682319 -0.243818)
(100.006 0.00712132 -0.000367492)
(100.026 0.0147182 -0.000796978)
(100.066 0.0237193 -0.00157051)
(100.127 0.0347718 -0.00270192)
(100.215 0.0489164 -0.00463248)
(100.34 0.0667057 -0.00765988)
(100.51 0.0881307 -0.0123901)
(100.738 0.111668 -0.019493)
(101.031 0.132119 -0.030035)
(101.381 0.136715 -0.0447312)
(101.755 0.105397 -0.0642825)
(102.076 0.0175787 -0.0886908)
(102.239 -0.122642 -0.116455)
(102.17 -0.26738 -0.144604)
(101.893 -0.358761 -0.169546)
(101.53 -0.386296 -0.189531)
(101.195 -0.379212 -0.204001)
(100.934 -0.362212 -0.213375)
(100.739 -0.344568 -0.219194)
(100.594 -0.328654 -0.222721)
(100.484 -0.315284 -0.22487)
(100.403 -0.304931 -0.226234)
(100.343 -0.296893 -0.227224)
(100.299 -0.290349 -0.228043)
(100.266 -0.284582 -0.22897)
(100.242 -0.27926 -0.230072)
(100.223 -0.274168 -0.231321)
(100.209 -0.269167 -0.232655)
(100.198 -0.264205 -0.233988)
(100.189 -0.259281 -0.235229)
(100.183 -0.254405 -0.236296)
(100.178 -0.249593 -0.237122)
(100.175 -0.244875 -0.237659)
(100.174 -0.240314 -0.237852)
(100.175 -0.235723 -0.237935)
(100.177 -0.231244 -0.237836)
(100.18 -0.22694 -0.237613)
(100.186 -0.222853 -0.237402)
(100.194 -0.219141 -0.237397)
(100.208 -0.216343 -0.23795)
(99.9937 0.00527447 0.00860666)
(99.9721 0.0106266 0.0178475)
(99.9322 0.0162185 0.0283433)
(99.873 0.0221139 0.0411844)
(99.793 0.0280573 0.0574142)
(99.69 0.0332668 0.0782406)
(99.5632 0.0360556 0.104721)
(99.4148 0.0334607 0.138253)
(99.254 0.0207857 0.180108)
(99.0997 -0.00831493 0.230577)
(98.9846 -0.0594166 0.288893)
(98.9486 -0.130775 0.352639)
(99.017 -0.203023 0.417819)
(99.1801 -0.257283 0.478812)
(99.395 -0.283649 0.530688)
(99.6143 -0.29159 0.571743)
(99.8115 -0.28957 0.602265)
(99.9791 -0.282049 0.624249)
(100.117 -0.271909 0.639829)
(100.226 -0.261493 0.651017)
(100.311 -0.252074 0.659048)
(100.374 -0.244165 0.665262)
(100.42 -0.237854 0.670783)
(100.454 -0.233414 0.675764)
(100.478 -0.230648 0.680392)
(100.497 -0.229165 0.684935)
(100.511 -0.22875 0.689113)
(100.521 -0.229179 0.692929)
(100.529 -0.23017 0.696527)
(100.535 -0.231484 0.69983)
(100.54 -0.232949 0.702711)
(100.545 -0.23445 0.705033)
(100.548 -0.235887 0.706937)
(100.552 -0.237205 0.70841)
(100.556 -0.238387 0.709383)
(100.561 -0.239461 0.709782)
(100.567 -0.240466 0.709487)
(100.573 -0.241424 0.708617)
(100.583 -0.242414 0.707127)
(100.598 -0.243619 0.704946)
(99.9939 0.0156831 0.00840957)
(99.9728 0.0316821 0.0173512)
(99.9334 0.0486139 0.0276523)
(99.8745 0.0667764 0.040291)
(99.7937 0.0856123 0.0563197)
(99.6873 0.103091 0.0769918)
(99.5523 0.114568 0.10369)
(99.3881 0.111334 0.138002)
(99.2002 0.0788252 0.181416)
(99.007 -0.00371275 0.234782)
(98.8481 -0.153364 0.297672)
(98.7904 -0.362984 0.367755)
(98.8768 -0.583642 0.440284)
(99.084 -0.743565 0.50789)
(99.3425 -0.822061 0.563954)
(99.5896 -0.849902 0.606887)
(99.8021 -0.848254 0.638077)
(99.9779 -0.829752 0.660196)
(100.119 -0.80334 0.675778)
(100.229 -0.774784 0.686764)
(100.312 -0.748012 0.694606)
(100.374 -0.725841 0.700899)
(100.418 -0.708906 0.706445)
(100.45 -0.696854 0.711305)
(100.473 -0.687821 0.715561)
(100.491 -0.680709 0.719438)
(100.504 -0.67551 0.723041)
(100.513 -0.672199 0.726442)
(100.52 -0.670416 0.729675)
(100.525 -0.669798 0.732701)
(100.529 -0.670085 0.73546)
(100.533 -0.67108 0.737904)
(100.535 -0.672581 0.740038)
(100.538 -0.674478 0.741837)
(100.541 -0.676724 0.743239)
(100.544 -0.679308 0.74417)
(100.548 -0.682275 0.744542)
(100.554 -0.685623 0.744299)
(100.561 -0.689338 0.743356)
(100.574 -0.693355 0.741679)
(99.9942 0.025692 0.00796795)
(99.9741 0.0521398 0.0164235)
(99.9363 0.0807008 0.0262266)
(99.8787 0.112275 0.0383413)
(99.7974 0.146662 0.0538632)
(99.6864 0.181645 0.0741695)
(99.538 0.211101 0.10095)
(99.3446 0.221623 0.136232)
(99.1033 0.186859 0.182218)
(98.8307 0.0587434 0.24084)
(98.5852 -0.270417 0.312819)
(98.4744 -0.725808 0.3951)
(98.5935 -1.13813 0.479565)
(98.892 -1.37543 0.557557)
(99.2307 -1.47214 0.619667)
(99.5269 -1.49972 0.664997)
(99.7684 -1.4821 0.696635)
(99.9597 -1.44119 0.718382)
(100.107 -1.39151 0.733313)
(100.218 -1.34018 0.743506)
(100.3 -1.29368 0.750259)
(100.357 -1.25267 0.755907)
(100.398 -1.22721 0.761419)
(100.428 -1.21505 0.766449)
(100.451 -1.2083 0.770671)
(100.469 -1.2035 0.774114)
(100.481 -1.20037 0.776939)
(100.488 -1.19884 0.779291)
(100.493 -1.19857 0.781287)
(100.495 -1.19924 0.783029)
(100.495 -1.20063 0.784593)
(100.494 -1.20262 0.786044)
(100.492 -1.20506 0.787428)
(100.489 -1.20786 0.788752)
(100.486 -1.211 0.789972)
(100.483 -1.21451 0.79099)
(100.482 -1.21848 0.791654)
(100.481 -1.22299 0.791783)
(100.483 -1.22799 0.791217)
(100.49 -1.23292 0.789992)
(99.9949 0.0348798 0.00728514)
(99.9768 0.0711814 0.0150097)
(99.9424 0.111321 0.0240008)
(99.8887 0.157391 0.0352039)
(99.8104 0.210635 0.0497296)
(99.6981 0.270613 0.0690337)
(99.5375 0.333221 0.0950681)
(99.308 0.386102 0.130364)
(98.9805 0.399862 0.178099)
(98.491 0.202176 0.242039)
(98.2321 0.0195019 0.274347)
(97.8869 -0.642021 0.349585)
(97.9484 -1.44439 0.431785)
(98.4179 -1.96873 0.511036)
(98.9088 -2.12872 0.574349)
(99.2976 -2.16831 0.618806)
(99.6138 -2.13531 0.648573)
(99.8561 -2.06311 0.668164)
(100.038 -1.97933 0.681151)
(100.174 -1.89918 0.690104)
(100.34 -1.91231 0.822128)
(100.383 -1.83126 0.827895)
(100.398 -1.77514 0.831901)
(100.408 -1.74185 0.835263)
(100.417 -1.72015 0.838477)
(100.421 -1.70589 0.841383)
(100.418 -1.69736 0.843767)
(100.409 -1.69298 0.845594)
(100.396 -1.69152 0.846948)
(100.378 -1.69232 0.847951)
(100.357 -1.695 0.848735)
(100.333 -1.6993 0.849408)
(100.307 -1.70503 0.850045)
(100.279 -1.71199 0.850663)
(100.25 -1.72002 0.851204)
(100.221 -1.72902 0.851529)
(100.192 -1.73896 0.851393)
(100.164 -1.74989 0.850466)
(100.139 -1.7617 0.848364)
(100.113 -1.77314 0.84477)
(99.9959 0.0425173 0.00636314)
(99.9812 0.0872744 0.0130923)
(99.9529 0.137979 0.0209287)
(99.9078 0.198433 0.0307342)
(99.8395 0.27244 0.043537)
(99.7367 0.363705 0.0607149)
(99.5799 0.475014 0.0841938)
(99.3367 0.605025 0.116574)
(98.9024 0.740357 0.16126)
(98.5593 0.7437 0.186463)
(97.7518 0.354039 0.250066)
(96.9473 -0.707194 0.333108)
(97.0281 -2.34979 0.433297)
(98.1263 -2.97099 0.528211)
(98.8308 -3.02089 0.595406)
(99.2968 -2.99887 0.633974)
(99.6653 -2.89494 0.657179)
(99.9197 -2.76485 0.672299)
(100.095 -2.63615 0.683041)
(100.213 -2.52313 0.691704)
(100.294 -2.44641 0.700812)
(100.221 -2.54919 0.839472)
(100.097 -2.52145 0.838517)
(99.9802 -2.48558 0.833714)
(99.8768 -2.44841 0.827886)
(99.7775 -2.4166 0.821457)
(99.6798 -2.39055 0.814152)
(99.5843 -2.36896 0.805939)
(99.4909 -2.35113 0.79701)
(99.3991 -2.33685 0.787625)
(99.3086 -2.32605 0.778053)
(99.2192 -2.3186 0.768537)
(99.1311 -2.3143 0.759257)
(99.0446 -2.31291 0.750323)
(98.9602 -2.31417 0.741745)
(98.8784 -2.31783 0.733408)
(98.8 -2.32378 0.725011)
(98.7263 -2.33221 0.716069)
(98.6598 -2.34396 0.705944)
(98.5959 -2.36137 0.694187)
(99.9974 0.0477101 0.00524022)
(99.9877 0.0984332 0.0107428)
(99.9687 0.157137 0.0170964)
(99.9377 0.229435 0.0249941)
(99.8892 0.322143 0.035246)
(99.8128 0.444492 0.0489174)
(99.6896 0.609964 0.0674647)
(99.4828 0.838577 0.0928207)
(99.0687 1.16129 0.127382)
(98.6602 1.32189 0.147626)
(97.7069 1.46256 0.174655)
(95.5988 0.695794 0.22683)
(94.3757 -3.43452 0.332296)
(98.147 -4.73533 0.457279)
(98.6481 -3.98268 0.539844)
(99.2123 -3.97121 0.541717)
(99.5996 -3.7959 0.541212)
(99.7669 -3.58181 0.551518)
(99.81 -3.37626 0.565424)
(99.7718 -3.16693 0.574751)
(98.6493 -2.84573 0.569157)
(95.0924 -2.55648 0.399435)
(95.1612 -2.61042 0.396374)
(95.2437 -2.62905 0.394624)
(95.3123 -2.63113 0.394261)
(95.3703 -2.62721 0.394372)
(95.4248 -2.61916 0.39364)
(95.4788 -2.60767 0.391121)
(95.5323 -2.59438 0.386334)
(95.585 -2.58131 0.379156)
(95.637 -2.5703 0.369737)
(95.6882 -2.56277 0.358444)
(95.7389 -2.5596 0.345696)
(95.7893 -2.56113 0.331958)
(95.8396 -2.56724 0.317634)
(95.8899 -2.57742 0.302976)
(95.9405 -2.59103 0.287984)
(95.9914 -2.60754 0.272325)
(96.0418 -2.62712 0.255235)
(96.102 -2.65235 0.235492)
(99.9992 0.0496363 0.00394257)
(99.9957 0.10274 0.0080392)
(99.9887 0.165127 0.0126634)
(99.9768 0.243645 0.0182526)
(99.9575 0.347238 0.0252678)
(99.926 0.489334 0.0342403)
(99.874 0.691678 0.0457743)
(99.7869 0.992373 0.0603423)
(99.6162 1.46396 0.0777454)
(99.3488 1.86202 0.0875013)
(98.6295 2.79518 0.0957182)
(95.4831 5.78543 0.101856)
(77.2013 -4.39767 0.19175)
(57.2709 -4.91654 0.00603838)
(79.3942 -5.66361 -0.704266)
(82.9685 -4.78034 -0.66055)
(84.8407 -4.17817 -0.610367)
(85.9872 -3.7137 -0.569219)
(86.8818 -3.38762 -0.529174)
(92.7967 -3.73909 -0.543173)
(96.3874 -3.41405 -0.705977)
(96.5067 -3.28886 -0.691879)
(96.629 -3.19493 -0.674978)
(96.7186 -3.12318 -0.657651)
(96.786 -3.065 -0.640247)
(96.8434 -3.0159 -0.622897)
(96.8976 -2.97358 -0.606096)
(96.9522 -2.93672 -0.590461)
(97.0102 -2.90459 -0.576509)
(97.0735 -2.87677 -0.56459)
(97.1432 -2.85303 -0.554872)
(97.2191 -2.83312 -0.547352)
(97.3002 -2.81674 -0.541918)
(97.3849 -2.80351 -0.5384)
(97.4712 -2.79294 -0.536643)
(97.5574 -2.78443 -0.536641)
(97.6415 -2.77721 -0.538582)
(97.7217 -2.77007 -0.542957)
(97.8113 -2.76054 -0.550393)
(100.001 0.0476243 0.00269655)
(100.004 0.0987725 0.00530866)
(100.01 0.159335 0.00807711)
(100.02 0.236235 0.0111712)
(100.034 0.338581 0.0146444)
(100.055 0.47983 0.0184116)
(100.089 0.681099 0.0220752)
(100.151 0.977658 0.0245209)
(100.293 1.43091 0.0229972)
(100.343 1.83832 0.0205883)
(100.618 2.81743 0.00728296)
(102.437 5.33741 -0.0424581)
(111.067 4.00532 -0.132456)
(109.083 -6.65618 -0.270184)
(102.807 -6.85424 -0.374702)
(101.15 -5.06201 -0.455896)
(100.695 -4.07199 -0.506415)
(100.515 -3.51879 -0.533152)
(100.424 -3.18341 -0.545051)
(100.351 -2.97439 -0.549462)
(100.247 -2.73532 -0.623522)
(100.272 -2.31988 -0.77401)
(100.255 -2.21268 -0.767673)
(100.241 -2.15121 -0.758226)
(100.229 -2.11744 -0.749312)
(100.217 -2.09735 -0.741645)
(100.208 -2.08539 -0.735069)
(100.201 -2.07934 -0.729591)
(100.197 -2.07752 -0.725315)
(100.195 -2.07852 -0.722285)
(100.194 -2.08122 -0.720481)
(100.195 -2.08478 -0.719837)
(100.198 -2.08854 -0.720247)
(100.2 -2.09203 -0.721565)
(100.203 -2.09486 -0.723715)
(100.207 -2.09673 -0.726673)
(100.21 -2.09734 -0.730551)
(100.213 -2.09622 -0.735588)
(100.218 -2.09244 -0.742097)
(100.229 -2.08372 -0.750018)
(100.003 0.0416554 0.00137262)
(100.012 0.086551 0.0026216)
(100.031 0.139694 0.00368115)
(100.06 0.207035 0.00443518)
(100.104 0.296032 0.00458424)
(100.17 0.41669 0.00352383)
(100.272 0.582939 9.89537e-05)
(100.436 0.813824 -0.0078111)
(100.748 1.13308 -0.0241839)
(100.973 1.36902 -0.0354978)
(101.819 1.81731 -0.0746841)
(103.426 1.71087 -0.149389)
(105.198 -0.292415 -0.260132)
(104.739 -2.86769 -0.379374)
(102.953 -3.60048 -0.478516)
(101.738 -3.37595 -0.551151)
(101.113 -3.0155 -0.596848)
(100.783 -2.70892 -0.621602)
(100.594 -2.47652 -0.633515)
(100.472 -2.3023 -0.63838)
(100.386 -2.16165 -0.639278)
(100.294 -1.85252 -0.778983)
(100.263 -1.81868 -0.77329)
(100.241 -1.79689 -0.76701)
(100.226 -1.78373 -0.76111)
(100.216 -1.7748 -0.755751)
(100.208 -1.76778 -0.750932)
(100.201 -1.76172 -0.746711)
(100.197 -1.75606 -0.743143)
(100.194 -1.75032 -0.740239)
(100.192 -1.74417 -0.737976)
(100.191 -1.7375 -0.736304)
(100.191 -1.73028 -0.735165)
(100.192 -1.72255 -0.734487)
(100.194 -1.71434 -0.734265)
(100.197 -1.70564 -0.734549)
(100.201 -1.69641 -0.735483)
(100.207 -1.68646 -0.737312)
(100.216 -1.6757 -0.740374)
(100.233 -1.6646 -0.745031)
(100.004 0.032299 0.000304113)
(100.019 0.0670877 0.000385959)
(100.047 0.108141 -8.85085e-06)
(100.092 0.159792 -0.00120175)
(100.158 0.226943 -0.00375573)
(100.255 0.315366 -0.00861173)
(100.397 0.431172 -0.0173147)
(100.611 0.578588 -0.0323827)
(100.939 0.753509 -0.057876)
(101.415 0.834151 -0.0993901)
(102.043 0.735065 -0.162655)
(102.708 0.211366 -0.252227)
(103.057 -0.760028 -0.361133)
(102.807 -1.57841 -0.477361)
(102.169 -1.87721 -0.575748)
(101.549 -1.8741 -0.645502)
(101.114 -1.7807 -0.68895)
(100.836 -1.66944 -0.71375)
(100.652 -1.56445 -0.727092)
(100.526 -1.47233 -0.733436)
(100.44 -1.39386 -0.735296)
(100.383 -1.3259 -0.734068)
(100.344 -1.27324 -0.732467)
(100.315 -1.23192 -0.731155)
(100.293 -1.20045 -0.730053)
(100.276 -1.17707 -0.729233)
(100.262 -1.15981 -0.728836)
(100.249 -1.14707 -0.728894)
(100.239 -1.13765 -0.729339)
(100.23 -1.13055 -0.730056)
(100.223 -1.12496 -0.73093)
(100.217 -1.12023 -0.731862)
(100.212 -1.11591 -0.732783)
(100.209 -1.11163 -0.733651)
(100.208 -1.10716 -0.734505)
(100.208 -1.1023 -0.735437)
(100.21 -1.09691 -0.736618)
(100.214 -1.09093 -0.738291)
(100.22 -1.08439 -0.740756)
(100.231 -1.07767 -0.744255)
(100.005 0.0203594 -0.000495685)
(100.024 0.0422418 -0.00126783)
(100.058 0.0680507 -0.00269858)
(100.113 0.100204 -0.00524711)
(100.192 0.141326 -0.00967123)
(100.306 0.193926 -0.0170211)
(100.465 0.259402 -0.0289236)
(100.687 0.335276 -0.0477237)
(100.99 0.408609 -0.076616)
(101.38 0.440808 -0.119459)
(101.833 0.376325 -0.179997)
(102.252 0.141786 -0.259922)
(102.466 -0.273038 -0.354114)
(102.349 -0.693442 -0.450502)
(101.964 -0.927656 -0.535128)
(101.515 -0.979824 -0.598541)
(101.147 -0.945912 -0.640746)
(100.885 -0.887969 -0.666877)
(100.699 -0.828903 -0.682423)
(100.564 -0.775513 -0.691182)
(100.465 -0.730834 -0.695569)
(100.394 -0.697989 -0.697308)
(100.342 -0.676278 -0.698051)
(100.304 -0.662913 -0.698461)
(100.275 -0.655794 -0.698732)
(100.254 -0.653219 -0.699005)
(100.237 -0.653578 -0.699388)
(100.224 -0.655573 -0.69989)
(100.213 -0.658326 -0.700437)
(100.204 -0.661247 -0.700928)
(100.197 -0.663913 -0.701266)
(100.192 -0.666064 -0.701378)
(100.188 -0.667538 -0.701226)
(100.185 -0.668277 -0.700816)
(100.184 -0.668219 -0.700254)
(100.185 -0.667413 -0.699631)
(100.187 -0.665894 -0.699117)
(100.192 -0.663727 -0.698979)
(100.2 -0.661018 -0.699568)
(100.216 -0.657933 -0.701356)
(100.006 0.00694283 -0.000949036)
(100.026 0.0144148 -0.00214356)
(100.064 0.0231898 -0.00415531)
(100.123 0.0340423 -0.00734997)
(100.208 0.0477932 -0.0127573)
(100.328 0.0651167 -0.0213089)
(100.493 0.0860126 -0.0346376)
(100.713 0.109011 -0.054925)
(100.996 0.128918 -0.0850683)
(101.336 0.133488 -0.127726)
(101.698 0.103156 -0.185196)
(102.008 0.0179633 -0.257556)
(102.166 -0.118309 -0.34053)
(102.098 -0.258989 -0.424991)
(101.827 -0.346873 -0.50032)
(101.474 -0.372849 -0.559419)
(101.15 -0.365383 -0.600708)
(100.899 -0.348416 -0.627299)
(100.713 -0.330959 -0.643716)
(100.575 -0.315276 -0.653465)
(100.473 -0.302215 -0.658989)
(100.399 -0.292234 -0.661983)
(100.345 -0.284545 -0.663742)
(100.306 -0.278242 -0.665025)
(100.278 -0.272718 -0.666349)
(100.256 -0.267642 -0.667832)
(100.24 -0.262777 -0.66946)
(100.226 -0.257987 -0.671177)
(100.214 -0.253235 -0.672886)
(100.205 -0.24853 -0.674463)
(100.196 -0.243886 -0.675793)
(100.189 -0.239316 -0.676785)
(100.184 -0.234835 -0.677381)
(100.18 -0.230449 -0.677537)
(100.178 -0.226134 -0.67756)
(100.177 -0.221914 -0.677414)
(100.178 -0.217814 -0.677237)
(100.182 -0.213874 -0.677303)
(100.189 -0.210253 -0.677965)
(100.2 -0.207511 -0.679681)
(99.9942 0.00513853 0.0133577)
(99.9743 0.0103335 0.0276459)
(99.9376 0.0157788 0.0441671)
(99.8832 0.0215296 0.0644294)
(99.8097 0.0273486 0.090065)
(99.715 0.0325136 0.123005)
(99.5985 0.0354701 0.165313)
(99.4624 0.0334196 0.21927)
(99.315 0.021912 0.286915)
(99.1743 -0.00501803 0.369145)
(99.0707 -0.0528506 0.464959)
(99.0411 -0.119143 0.570233)
(99.1091 -0.186411 0.677291)
(99.2655 -0.236395 0.777347)
(99.4694 -0.260111 0.862482)
(99.6764 -0.266791 0.929897)
(99.8618 -0.264275 0.980511)
(100.019 -0.256604 1.01727)
(100.147 -0.246432 1.04341)
(100.247 -0.236093 1.06185)
(100.324 -0.226745 1.07494)
(100.38 -0.218744 1.08483)
(100.42 -0.212316 1.09332)
(100.448 -0.207948 1.10132)
(100.468 -0.205536 1.10904)
(100.482 -0.204596 1.11646)
(100.494 -0.204738 1.12342)
(100.502 -0.205652 1.12991)
(100.51 -0.207024 1.13595)
(100.516 -0.208569 1.14149)
(100.523 -0.210073 1.14645)
(100.529 -0.211404 1.15076)
(100.535 -0.212475 1.15442)
(100.542 -0.213254 1.15738)
(100.548 -0.213742 1.15957)
(100.555 -0.214001 1.16088)
(100.562 -0.214114 1.16122)
(100.57 -0.214174 1.16051)
(100.58 -0.21431 1.15856)
(100.594 -0.214736 1.15505)
(99.9944 0.0152605 0.0130357)
(99.975 0.0307948 0.0269649)
(99.9388 0.0472566 0.0431309)
(99.8846 0.0649383 0.0630517)
(99.8102 0.083335 0.0884189)
(99.7123 0.100571 0.12131)
(99.588 0.112323 0.164115)
(99.4367 0.110362 0.219581)
(99.2637 0.0808636 0.290416)
(99.0856 0.00412828 0.378496)
(98.9405 -0.136219 0.483425)