/*--------------------------------*- C++ -*----------------------------------*\
| =========                 |                                                 |
| \\      /  F ield         | OpenFOAM: The Open Source CFD Toolbox           |
|  \\    /   O peration     | Version:  2306                                  |
|   \\  /    A nd           | Website:  www.openfoam.com                      |
|    \\/     M anipulation  |                                                 |
\*---------------------------------------------------------------------------*/
FoamFile
{
    version     2.0;
    format      ascii;
    arch        "LSB;label=32;scalar=64";
    class       volVectorField;
    location    "1.1";
    object      Force;
}
// * * * * * * * * * * * * * * * * * * * * * * * * * * * * * * * * * * * * * //

dimensions      [1 1 -2 0 0 0 0];

internalField   uniform (0 0 0);

boundaryField
{
    walls
    {
        type            calculated;
        value           uniform (0 0 0);
    }
    inlet
    {
        type            calculated;
        value           uniform (0 0 0);
    }
    outlet
    {
        type            calculated;
        value           uniform (0 0 0);
    }
    NASA
    {
        type            calculated;
        value           nonuniform List<vector> 
14179
(
(-0.0145037 -0.133377 8.31326e-06)
(-0.0129743 -0.107247 5.97355e-06)
(-0.0673077 -0.544223 0.000822362)
(-0.100702 -0.809805 0.0029059)
(-0.0660546 -0.534632 0.000422924)
(-0.10972 -0.882214 0.00321937)
(0.211666 0.919006 -0.000351833)
(0.100246 0.503268 -5.68405e-05)
(0.658668 3.22989 0.00357179)
(0.108268 0.543579 -6.10143e-05)
(-0.000592432 -0.00809562 3.8769e-06)
(-0.017856 -0.146104 0.000527591)
(0.130421 0.651282 -0.00215091)
(-0.0356114 -0.32376 0.00128779)
(0.0618399 0.30852 -0.000990572)
(1.37572 0.928022 0.00282406)
(1.39076 0.921746 -0.000405145)
(0.0221142 0.123995 -5.34327e-05)
(0.156909 0.931042 -0.000114319)
(1.2847 0.851504 -0.00303465)
(-0.0170304 -0.23829 -5.09459e-06)
(-0.0212564 -0.197638 -0.000115302)
(-0.0194861 -0.270528 -0.000224902)
(-0.00868194 -0.0632252 3.58772e-06)
(-0.0131538 -0.108784 2.34195e-05)
(-0.0093841 -0.0683399 1.96892e-05)
(-0.01299 -0.106968 0.000404139)
(-0.0151815 -0.108775 0.000425008)
(-0.0133814 -0.122189 0.00046133)
(-0.0157423 -0.215961 0.00389026)
(0.0466548 0.203743 8.94915e-06)
(0.0524592 0.247352 -2.62756e-06)
(0.0564113 0.265983 -9.22646e-05)
(0.0460257 0.200476 -2.25761e-05)
(0.0620904 0.227736 -2.34136e-06)
(0.0628348 0.230364 -8.64213e-06)
(0.0315116 0.114307 -7.51365e-07)
(0.0329634 0.119522 -2.46974e-06)
(-0.00183633 -0.00887339 0.000150171)
(-0.0130809 -0.0636417 0.000713622)
(0.168206 0.6142 -0.0016009)
(0.0981731 0.353901 -0.000538221)
(0.106818 0.536218 -0.000107997)
(-0.00600557 -0.0422109 3.8577e-06)
(-0.00546283 -0.0383936 -1.76435e-07)
(0.165821 0.832894 -0.000182827)
(-0.00981304 -0.0679107 0.000298947)
(0.0968716 0.483546 -0.000967781)
(0.0899918 0.449627 -0.00102535)
(0.107241 0.438155 -0.000369549)
(0.0841113 0.312675 -2.28809e-05)
(0.0837502 0.311335 -5.72076e-05)
(-0.0587838 1.43431 -0.000187242)
(1.38618 0.921637 -0.000757116)
(-0.0545022 1.33946 7.75039e-05)
(-0.0023401 1.13328 -0.0001614)
(0.0781889 1.18253 3.10832e-05)
(0.0716848 1.08381 -0.000194203)
(-0.00259879 1.22375 -2.44841e-05)
(0.0945146 0.371481 -3.04342e-05)
(0.158069 0.93747 -0.000195859)
(0.00802814 0.029231 1.16314e-05)
(-0.0229538 0.570479 -0.00120475)
(0.929014 0.63398 0.0767816)
(-0.0007293 0.535765 -0.00142624)
(0.0271569 0.412067 -0.000978094)
(0.127588 0.746625 0.0063154)
(-0.0146183 -0.14626 1.13008e-05)
(-0.0144461 -0.132933 1.59932e-05)
(-0.0990275 -0.796459 0.00285396)
(-0.0114533 -0.0908243 5.78301e-06)
(-0.0129521 -0.107071 1.26375e-05)
(1.32931 0.880048 -0.0037875)
(1.28248 0.849311 -0.00344062)
(0.345949 2.05088 -0.00806235)
(0.260466 1.53855 -0.00552133)
(-0.111214 -0.895435 0.0017902)
(-0.0556809 -0.346551 0.00130199)
(-0.0549253 -0.344168 0.00132166)
(-0.0414851 -0.24344 0.000938698)
(0.156298 0.67409 -0.00255981)
(0.174858 0.755885 -0.00280899)
(0.761024 1.30663 -5.33899e-05)
(0.7615 1.30548 -0.00032437)
(0.102404 0.514023 -5.73353e-05)
(0.0903565 0.434116 -4.02891e-05)
(-0.000336326 -0.00356363 -6.54678e-07)
(0.00138236 0.00690193 -2.62988e-07)
(0.00141496 0.0070874 -2.2172e-06)
(-0.000327522 -0.00350168 3.21361e-07)
(0.110225 0.553422 -4.68862e-05)
(0.102812 0.530279 -4.72725e-05)
(-0.0201144 -0.164375 0.000631859)
(-0.0134593 -0.0964577 0.000390776)
(-0.0202971 -0.144927 0.000555828)
(-0.0122773 -0.0846685 0.000365109)
(-0.0180379 -0.123714 0.00043176)
(0.0853712 0.425912 -0.00161062)
(-0.0201305 -0.183114 0.000686627)
(-0.0248149 -0.34085 0.00146573)
(-0.0209903 -0.294717 0.000506555)
(0.0800576 0.399776 -0.00148337)
(1.37302 0.922123 -0.00267195)
(0.100681 0.593664 -8.54648e-05)
(0.111806 0.625297 -3.62755e-05)
(0.112592 0.629576 -8.78311e-05)
(0.183234 1.27574 -0.000152764)
(0.0992942 0.589076 -7.869e-05)
(0.15674 0.930017 -0.000123686)
(0.0185424 0.0174995 1.45822e-05)
(0.331229 -0.122059 0.00332201)
(0.350524 -0.13897 0.00164852)
(0.0157229 0.015111 -4.18671e-05)
(-0.00611251 -0.0263412 0.000175449)
(0.0226438 0.0834924 -0.000254722)
(0.00311915 0.0109124 3.31864e-05)
(0.0229711 0.0925224 -0.000178503)
(-0.00904659 -0.0404147 0.000172254)
(-0.00116842 -0.00720141 0.000108274)
(0.00491587 0.0206293 -2.27924e-05)
(-0.017813 -0.0861657 0.000327686)
(-0.00105577 0.732917 -0.00249788)
(0.0407663 0.608683 -0.00215448)
(-0.00154197 0.981887 -0.00340885)
(0.0318692 0.482248 -0.00202292)
(-0.0347984 0.87043 -0.00316375)
(1.11031 0.746858 -0.00296358)
(-0.0471602 1.16712 -0.00401535)
(0.109642 0.64877 -0.00332808)
(0.155598 0.609263 -0.0024755)
(0.117197 0.458284 -0.00162485)
(0.107839 0.393458 -0.00137419)
(0.152165 0.555883 -0.00195053)
(0.0626998 0.2262 -0.000787781)
(0.0854185 0.308688 -0.00115255)
(-0.0131712 -0.148396 3.09385e-06)
(-0.0169161 -0.236368 2.28171e-05)
(-0.0105099 -0.0809499 5.41628e-06)
(-0.00853227 -0.0621396 6.45806e-06)
(0.000537039 0.0014039 0.541214)
(-0.0130107 -0.102353 0.00039303)
(0.000507994 0.00134183 0.514678)
(-0.0144715 -0.110242 0.000432857)
(0.000820953 0.00167001 0.585444)
(-0.013115 -0.130896 0.000560398)
(0.00106819 0.00212298 0.58642)
(-0.0122296 -0.140802 0.00139704)
(0.0522536 0.24637 -3.96156e-05)
(0.0389754 0.177256 -1.22929e-05)
(0.0392902 0.178709 -2.9317e-05)
(0.0462462 0.201405 -2.42337e-05)
(0.0455102 0.200446 -1.44674e-05)
(0.045747 0.201507 -3.02689e-05)
(0.0615666 0.225758 -5.678e-06)
(0.0238934 0.118828 -1.83072e-05)
(0.0213508 0.108315 -1.67174e-05)
(0.0317766 0.115247 7.35505e-07)
(0.0273096 0.0960614 -1.17597e-06)
(-0.00630054 -0.0288626 0.000261542)
(-0.00537314 -0.0256151 0.000285104)
(0.000402164 0.00107724 0.323134)
(0.000402669 0.00103497 0.316263)
(0.00039305 0.00101516 0.312691)
(0.00031785 0.0010193 0.358444)
(0.0922697 0.314372 -0.000231896)
(0.157971 0.552292 0.00280403)
(-1.41433e-05 0.0010573 0.336638)
(0.000319397 0.000491593 0.304079)
(0.000121814 0.00036097 0.107785)
(0.0807943 0.28358 -0.000408976)
(0.28413 0.660075 -9.74935e-06)
(0.166975 0.58867 5.06695e-05)
(0.165288 0.582766 -4.93517e-05)
(0.0771795 0.360481 -2.46722e-05)
(0.0773086 0.361139 -4.01794e-05)
(0.135789 0.648653 -5.37505e-05)
(0.0744671 0.331698 -3.53215e-05)
(0.0778882 0.353572 -1.87374e-05)
(0.0784585 0.356143 -3.81366e-05)
(0.0740518 0.3299 -1.24543e-05)
(-0.00482032 -0.0338912 2.65231e-06)
(-0.00593224 -0.0416995 3.19917e-06)
(0.159363 0.844141 -5.26981e-05)
(0.271711 0.468615 0.0105418)
(0.00100765 0.00406325 0.874773)
(0.00035275 0.00207131 0.417239)
(0.0496846 0.144528 -0.00015212)
(-0.011807 -0.073649 0.000370903)
(-0.0118755 -0.0749597 0.000518306)
(0.000944923 0.00236266 0.687798)
(0.000322354 0.000545901 0.312591)
(0.0960666 0.493004 -6.46468e-06)
(0.000509123 0.000558623 0.376904)
(0.139836 0.734868 0.00383552)
(0.000541051 0.00128071 0.350185)
(0.000392356 0.00108001 0.332756)
(-0.000349553 0.000794511 0.356337)
(6.9948e-05 0.00048069 0.112784)
(0.080234 0.38322 -0.000906858)
(0.102833 0.477669 -7.84817e-05)
(0.000449078 0.000385583 0.206808)
(9.68343e-05 0.00057263 0.108001)
(0.168811 0.709355 0.000397933)
(0.0841324 0.312751 -3.28965e-05)
(0.0801211 0.306706 -2.82727e-05)
(0.0955292 0.389433 -4.98567e-05)
(0.0670476 0.270046 -1.45491e-05)
(-0.841371 2.68982 -0.0206401)
(-0.0572387 1.40211 -7.24537e-05)
(-0.176306 1.64789 0.000714854)
(0.0768199 1.15992 -0.000114378)
(0.0602843 1.28904 -7.52655e-05)
(-0.00244829 1.21552 -6.24393e-05)
(0.0342681 1.29336 -6.51706e-05)
(0.117858 1.29381 -9.26789e-05)
(0.151795 1.95975 -0.000102087)
(0.151048 1.94996 -0.000134927)
(0.115905 1.27263 -8.89234e-05)
(0.131302 1.34147 -0.000124801)
(0.128007 1.19119 -2.56425e-05)
(0.131635 1.22524 -0.000152751)
(0.126198 1.28886 -2.61e-05)
(0.06382 0.264508 -3.31789e-05)
(0.0592405 0.23512 -2.91831e-05)
(0.0950202 0.373437 -3.77885e-05)
(0.112636 0.76307 -0.00011505)
(0.107106 0.674727 -8.83854e-05)
(-0.000377488 0.000996605 0.575409)
(0.000895319 0.00344598 0.906758)
(0.00149053 0.00506124 0.000123236)
(0.000356588 0.00366867 0.749834)
(0.00264013 0.00922011 0.000112873)
(0.000464778 0.0104623 0.27591)
(-0.0611026 0.586319 -0.00180081)
(0.00747192 -0.00106934 1.75548)
(0.000358557 0.00085731 0.305363)
(0.0142221 0.519503 -0.00144387)
(0.000748187 0.000350001 0.246265)
(0.0233362 0.488348 -0.00123236)
(0.0615678 0.529641 -0.00144313)
(0.0612852 0.519669 -0.00139564)
(0.000366569 0.000696435 0.245808)
(0.000395351 0.000762391 0.270439)
(0.0577356 0.532596 -0.00134242)
(0.0524886 0.529434 -0.0010424)
(0.0475129 0.519905 0.000296982)
(2.13769e-05 -0.000309052 0.226683)
(-0.0193218 -0.106048 0.00131911)
(0.000168414 0.00131652 0.510085)
(0.0915676 0.509148 -0.000983432)
(0.000394984 0.00104549 0.323272)
(0.000397729 0.00105046 0.324547)
(0.482218 -0.192119 -0.0037709)
(0.223013 0.210852 0.0019088)
(0.000183724 0.000187088 0.078366)
(-0.0536494 -0.527449 0.00134872)
(-0.0707592 -0.571441 0.00146987)
(-0.0562175 -0.552167 0.00174656)
(-0.0711191 -0.574301 0.00150586)
(-0.0761066 -0.613891 0.0019533)
(-0.0588036 -0.577125 0.0019894)
(-0.0824759 -0.66454 0.00230462)
(0.177353 0.767503 -0.00285832)
(0.446183 2.1846 -0.00792536)
(0.180905 0.783285 -0.00290829)
(0.425587 2.0832 -0.00757941)
(-0.066195 -0.535631 0.000475998)
(-0.041334 -0.257836 0.000947909)
(-0.10501 -0.844153 0.00304144)
(-0.0470769 -0.293201 0.0010817)
(1.38897 0.920613 -0.000939358)
(1.39093 0.921851 -0.000442561)
(0.225869 0.980658 -0.000483991)
(0.595495 2.92137 -0.00229153)
(0.581993 2.85559 -0.00147164)
(0.207213 0.899386 -0.000722298)
(0.43289 2.56697 -0.00131551)
(0.49839 2.95448 -0.00238903)
(-0.00115369 -0.0104409 9.59549e-06)
(-0.000670318 -0.00807301 4.65903e-06)
(0.0219889 0.124372 -0.000102353)
(0.0224425 0.126432 -6.6853e-05)
(0.0521278 0.226354 -0.000703675)
(0.0385332 0.17517 -0.000542739)
(0.0623026 0.271291 -0.000882741)
(0.0302189 0.136492 -0.000391755)
(-0.108894 -0.876181 0.00319696)
(-0.0690403 -0.501657 0.00183708)
(0.0200511 0.094829 -0.000218564)
(-0.00955564 -0.0533653 0.000256399)
(0.062959 0.229563 -0.000869773)
(0.0709085 0.258516 -0.00095606)
(0.0341773 0.123189 -0.000468662)
(0.0395834 0.142668 -0.000528159)
(0.278159 1.25845 -0.000523309)
(0.176562 0.765919 -0.000147741)
(0.312629 1.47818 -0.000658266)
(0.151208 0.758888 -0.000231823)
(-0.0188336 -0.158527 0.000192031)
(-0.043066 -0.319252 0.000375796)
(-0.00700302 -0.0511732 -7.34456e-06)
(0.000288005 -0.00335287 1.7517e-06)
(-0.0185945 -0.127436 5.23442e-05)
(-0.0246836 -0.172608 0.000107617)
(0.0963119 0.393814 0.000100174)
(0.0834177 0.310138 -0.000129421)
(0.0836055 0.310808 -7.86768e-05)
(0.10767 0.441764 -0.000766892)
(0.164267 0.721574 -0.0002841)
(0.140884 0.64928 -0.000140233)
(0.171545 0.75415 -0.000310402)
(0.180347 0.841056 -0.000160709)
(-0.00244374 1.164 -0.000158723)
(0.0634948 0.957127 -0.000390231)
(-0.00296963 1.38223 -0.00048523)
(0.0702562 1.06233 -0.000244125)
(-0.0600384 1.4656 -0.000206103)
(1.38874 0.921663 -0.000447891)
(-0.0657458 1.60501 -0.000558661)
(0.485532 4.16501 -0.00219819)
(0.0841371 0.330541 -7.31452e-05)
(0.0771379 0.303031 -0.000118377)
(0.0729307 0.267293 -4.56916e-05)
(0.0644562 0.236331 -1.65347e-05)
(0.0563713 0.295492 -0.000162525)
(0.182608 0.901311 -0.00124968)
(0.0213608 0.118913 -8.17304e-05)
(0.0468016 0.251101 -0.0001073)
(0.80448 5.03424 0.00167051)
(0.371922 2.48496 0.000191526)
(0.0376676 0.136523 -1.84142e-05)
(0.0337428 0.122371 -4.36961e-06)
(1.26644 0.84135 -0.00194777)
(0.0901495 0.624107 -0.00228296)
(0.246962 0.23164 -0.000806423)
(0.497993 -0.206496 0.000308983)
(0.233914 0.220085 -0.000845261)
(0.516863 -0.214688 5.59671e-05)
(0.0618714 0.226851 -8.50118e-06)
(0.0288318 0.10136 4.53729e-07)
(0.0322414 0.116919 9.0842e-07)
(0.28408 0.659979 -3.11365e-05)
(0.274081 0.804587 -0.000114936)
(0.000825915 0.00265469 0.740563)
(0.00032859 0.0013417 0.365874)
(0.000505793 0.00057729 0.385911)
(-0.188829 1.74991 -0.00023634)
(-0.0589451 1.44043 -9.97719e-05)
(1.38183 0.922092 -0.00143095)
(0.0206213 0.0194598 1.64573e-05)
(0.356851 -0.146667 0.00013557)
(0.356422 -0.144907 0.000572619)
(0.0232045 0.0218776 1.36177e-05)
(0.000492295 0.00147135 0.553251)
(0.000381093 0.000746447 0.383463)
(0.00035543 0.000863705 0.34422)
(0.000561471 0.00132189 0.368456)
(-0.0898683 -0.723447 0.00256443)
(1.36637 0.904666 -0.00390781)
(1.35337 0.896031 -0.00386552)
(1.32668 0.878323 -0.00378096)
(1.35253 0.895469 -0.00386325)
(0.396178 1.93816 -0.00706687)
(0.174253 0.75347 -0.00280704)
(0.176072 0.761826 -0.00283806)
(0.417977 2.04577 -0.0074519)
(0.269755 1.59369 -0.00575817)
(0.288404 1.70418 -0.00612059)
(-0.023121 -0.13681 0.000518788)
(-0.0298988 -0.176019 0.000666276)
(-0.0545244 -0.339207 0.00126452)
(-0.049115 -0.305752 0.00113094)
(-0.0395857 -0.232216 0.000886959)
(-0.0324439 -0.190743 0.000723218)
(0.253543 2.15666 -0.00765542)
(0.240646 2.04617 -0.0073584)
(0.0259043 0.095621 -0.000302654)
(0.0244184 0.0986894 -0.000348194)
(0.0362518 0.147403 -0.000270079)
(0.0340231 0.125821 -0.000423919)
(0.00233138 0.00940672 3.86074e-05)
(0.0290487 0.124452 -0.000294567)
(0.0382053 0.165119 -0.000476456)
(0.023499 0.10478 -0.000234671)
(0.0420329 0.155622 -0.000540409)
(0.0464116 0.189251 -0.000393831)
(0.0363168 0.134356 -0.000457692)
(0.0426192 0.636077 -0.00223836)
(-0.00162568 1.0252 -0.0035589)
(-0.00181582 1.12994 -0.00392007)
(0.0469188 0.700513 -0.00246979)
(-0.0545742 1.34939 -0.00464864)
(1.31644 0.871502 -0.00374245)
(-0.0570618 1.41054 -0.00486236)
(-0.0490013 1.21238 -0.00417471)
(-0.0533697 1.3198 -0.00454691)
(1.31367 0.86966 -0.00373466)
(-0.00186954 1.15833 -0.0040179)
(0.0512444 0.766215 -0.0026938)
(-0.00197586 1.21473 -0.00421552)
(0.0482315 0.720599 -0.00251186)
(0.226331 1.33751 -0.00464567)
(0.41135 2.55852 -0.0112959)
(0.237055 1.57881 -0.00568958)
(0.24695 1.45795 -0.00532968)
(0.404809 2.52432 -0.00902239)
(0.377236 2.35147 -0.00859076)
(0.195432 1.29912 -0.00583482)
(-0.0809415 -0.594282 0.0017506)
(-0.102034 -0.821085 0.00305581)
(-0.0659994 -0.438153 0.00162177)
(-0.0558812 -0.348275 0.00132914)
(-0.0792891 -0.531735 0.00188013)
(-0.0522111 -0.326212 0.00127467)
(-0.0226622 -0.126313 0.000520838)
(-0.0433401 -0.254735 0.00100715)
(0.00654292 0.0259565 0.000162314)
(-0.0459393 -0.271255 0.00108448)
(0.230515 1.03572 -0.00401789)
(0.178655 0.771875 -0.00284528)
(0.236921 1.11634 -0.00409313)
(0.176451 0.762585 -0.00282073)
(0.223972 1.0097 -0.00372383)
(0.240857 1.13406 -0.00454405)
(0.36708 1.79397 -0.0067137)
(0.105096 0.410882 -0.00147015)
(0.0887467 0.346881 -0.00127316)
(0.0947549 0.34562 -0.00122532)
(0.0746258 0.272076 -0.000996443)
(0.0861389 0.336719 -0.00124951)
(0.0801261 0.31328 -0.00117848)
(0.054981 0.19829 -0.000700116)
(0.0421177 0.151807 -0.000555918)
(0.12615 0.292396 -0.00101637)
(0.107325 0.248653 -0.000825491)
(-0.0206981 -0.15686 0.000610449)
(-0.0181106 -0.129537 0.000509782)
(0.0810234 0.414104 -0.00179974)
(0.0855796 0.427139 -0.00153054)
(0.123835 0.653718 -0.00299042)
(-0.0193203 -0.190922 0.000647282)
(-0.0199259 -0.18166 0.000688047)
(-0.0172401 -0.189688 0.000395345)
(-0.0213129 -0.295519 0.00103333)
(0.0768926 0.367986 -0.00147837)
(0.08147 0.406684 -0.0014469)
(-0.0037294 -0.0158432 0.000112897)
(0.0065729 0.0254644 2.2996e-05)
(-0.000134111 -0.0013067 7.60837e-05)
(0.0134962 0.0494696 -0.000105179)
(0.0176685 0.648091 -0.00223689)
(-0.00127047 0.846722 -0.00294266)
(0.0269156 0.567561 -0.00203845)
(0.0361138 0.540338 -0.00198088)
(-0.105682 1.00509 -0.00486201)
(-0.0411357 1.02084 -0.00356426)
(1.23045 0.821711 -0.000360675)
(-0.462993 1.50697 -0.00474819)
(-0.0450145 1.11496 -0.00385334)
(-0.141237 1.31496 -0.00444664)
(-0.0116254 -0.0607816 0.000282627)
(-0.00836675 -0.0431074 0.000212679)
(-0.0101836 -0.0522035 0.000251215)
(-0.00977588 -0.0513243 0.000244205)
(-0.0247395 -0.135803 0.000427216)
(0.00082164 0.00163769 0.391768)
(0.0584086 0.392933 -0.00142639)
(0.0921517 0.638114 -0.00242301)
(0.0604708 0.406518 -0.00153571)
(0.125847 0.45932 -0.0015863)
(0.152675 0.557517 -0.00193056)
(0.0724972 0.261634 -0.000899918)
(0.0613243 0.214526 -0.000746339)
(0.0805019 0.282127 -0.00115852)
(0.0884586 0.319433 -0.0011173)
(0.446971 -0.186796 -0.0024843)
(0.210841 0.193618 0.000164143)
(0.257515 0.239518 -0.000637208)
(0.520866 -0.217312 -0.000766523)
(0.224169 0.971817 -0.00349994)
(0.573474 2.81026 -0.00995712)
(0.228911 0.99235 -0.00354187)
(0.549804 2.69427 -0.00961115)
(-0.066822 -0.540453 0.000679182)
(-0.0020143 -0.0156992 2.60684e-05)
(-0.00167033 -0.0135813 1.90164e-05)
(0.233649 1.0138 -0.00126936)
(0.613994 3.01142 -0.00463662)
(0.223758 0.97079 -0.00148491)
(-0.0609774 -0.443273 0.00159781)
(0.176565 0.776585 -0.000570442)
(0.143508 0.662443 -0.000557685)
(0.176802 0.777675 -0.000657345)
(0.143385 0.661811 -0.000489467)
(0.0674567 0.247161 -0.000180313)
(0.0683053 0.250277 -0.000158011)
(-0.0334617 -0.245496 0.000197724)
(0.1622 0.802938 -0.000672931)
(0.0636256 0.334659 -0.000279297)
(0.034094 0.12354 -9.33226e-05)
(0.0395982 0.143484 -9.84022e-05)
(1.39055 0.921701 -0.00036912)
(0.0311068 0.0292494 2.42016e-06)
(0.339018 -0.1407 8.044e-06)
(0.0305403 0.0287065 -2.82922e-06)
(0.340246 -0.141148 2.51847e-06)
(-0.0202433 -0.127968 0.000457857)
(-0.0226828 -0.142991 0.000515522)
(-0.0392684 -0.245117 0.000900178)
(-0.0948666 -0.763294 0.00272342)
(-0.0342567 -0.214261 0.000783906)
(0.182733 0.791358 -0.00293624)
(0.194521 0.843151 -0.00311491)
(0.105274 0.460804 -0.00161134)
(0.0792568 0.363879 -0.00126824)
(0.108797 0.476339 -0.00166942)
(0.0759189 0.348422 -0.00120975)
(0.0456123 0.208074 -0.000675307)
(0.0709563 0.309486 -0.00103102)
(0.0778824 0.340037 -0.00115033)
(0.0515153 0.235453 -0.000783256)
(0.0573221 0.209681 -0.000824071)
(0.0557895 0.20394 -0.00080123)
(0.061195 0.223157 -0.000851025)
(0.0574166 0.209474 -0.000810203)
(0.0154876 0.0794137 -0.000254902)
(0.0711096 0.349036 -0.00119698)
(-0.0685119 -0.497684 0.00181704)
(0.0277353 0.133289 -0.00037668)
(-0.0057281 -0.0329325 0.00017238)
(0.0349153 0.169106 -0.00051863)
(0.0311039 0.112523 -0.000448016)
(0.0297772 0.10764 -0.000428581)
(0.0329694 0.118847 -0.000455692)
(0.03043 0.109745 -0.000428329)
(1.32827 0.879352 -0.00378188)
(1.29646 0.8583 -0.00361244)
(0.127248 0.119861 -0.000495136)
(0.359482 -0.149264 0.000327697)
(0.369868 -0.153576 0.000338932)
(0.115386 0.108676 -0.000452727)
(0.476574 -0.19764 0.000384061)
(0.217691 0.20502 -0.000812572)
(0.203542 0.19176 -0.000766796)
(0.456489 -0.189417 0.000383215)
(-1.02184e-06 -0.0188026 2.92299e-05)
(9.25535e-05 -0.0119186 2.58466e-05)
(-0.0527493 -0.518835 0.00111874)
(-0.000199618 -0.0332965 8.55878e-05)
(-6.9955e-05 -0.0238373 5.14227e-05)
(-0.0689828 -0.557398 0.00121018)
(-0.0549678 -0.540121 0.00159021)
(-0.000217511 -0.0345932 0.000111074)
(-0.000116403 -0.0272079 8.17614e-05)
(-0.0730599 -0.589697 0.00172577)
(-0.0734893 -0.59311 0.00175662)
(-1.27265e-07 -0.018593 6.87765e-05)
(-0.0577702 -0.567145 0.00190145)
(-0.000184321 -0.0321072 0.000110356)
(-0.0796627 -0.642154 0.00216563)
(1.38316 0.91591 -0.00390534)
(1.38114 0.914542 -0.00392262)
(1.37864 0.912855 -0.00393333)
(1.38298 0.915757 -0.00392979)
(0.19599 0.84998 -0.00307733)
(0.521375 2.55495 -0.00918487)
(0.538586 2.63944 -0.00942585)
(0.188709 0.818208 -0.00299348)
(0.178177 0.771197 -0.00286885)
(0.235 1.06037 -0.00390719)
(0.265971 1.25456 -0.0045754)
(0.43959 2.15215 -0.0078145)
(0.179647 0.777697 -0.00288994)
(0.242313 1.09378 -0.00401795)
(0.255371 1.20421 -0.00440498)
(0.4321 2.11527 -0.00769498)
(1.38311 0.916665 -0.00182957)
(1.38863 0.920372 -0.0014712)
(1.38851 0.920299 -0.0010118)
(1.38987 0.921202 -0.00141515)
(0.500156 2.96508 -0.00269881)
(0.474199 2.81131 -0.00343728)
(-0.00125768 -0.0110492 1.11386e-05)
(-0.0666299 -0.538961 0.000627579)
(-0.00152579 -0.0126906 1.66381e-05)
(0.0212014 0.119817 -0.000183415)
(0.0215319 0.121743 -0.000155864)
(0.0218979 0.123873 -0.000113628)
(0.0216801 0.122607 -0.000146047)
(0.196207 0.851567 -0.000735505)
(0.228407 0.99128 -0.00112429)
(0.649166 3.18492 -0.00374377)
(-0.0548804 -0.364656 0.00132476)
(-0.0431464 -0.268998 0.000989786)
(-0.0645605 -0.469095 0.0016979)
(-0.0451847 -0.281549 0.00103736)
(-0.059607 -0.39575 0.00144395)
(0.430417 3.68464 -0.0026625)
(0.457715 3.91776 -0.00239029)
(0.0833516 0.309896 -0.000147893)
(0.107717 0.441988 0.000349739)
(0.107797 0.442339 -0.000860805)
(0.083235 0.309482 -0.000199523)
(0.139901 0.645045 -0.000381416)
(0.175109 0.770006 -0.000401454)
(0.176233 0.775072 -0.000488337)
(0.142917 0.659479 -0.000420704)
(0.107756 0.442172 0.000252024)
(0.0830691 0.308886 -0.000268417)
(0.107693 0.441923 -0.0009565)
(0.0831721 0.309255 -0.000218721)
(0.0637168 0.961007 -0.000427705)
(-0.00301375 1.39955 -0.00058026)
(-0.00288219 1.32423 -0.000824864)
(0.0714858 1.08081 -0.000650531)
(-0.0605553 1.47681 -0.00097619)
(1.38964 0.921041 -0.000741805)
(-0.0489744 1.1941 -0.00100006)
(-0.0662839 1.61783 -0.000662841)
(-0.0633239 1.54459 -0.000922933)
(1.39073 0.921754 -0.00065615)
(-0.00272491 1.24516 -0.000851272)
(0.0746105 1.12895 -0.000942046)
(-0.00235812 1.00749 -0.000868754)
(0.074085 1.12072 -0.000735246)
(0.298024 1.34863 -0.000651364)
(0.228855 0.993494 -0.000603181)
(0.591185 2.90062 -0.00199322)
(0.336189 1.58936 -0.00125478)
(0.324259 1.53355 -0.000722114)
(0.593862 2.91407 -0.00180521)
(0.222125 0.96418 -0.000694665)
(0.292058 1.32116 -0.00104749)
(0.0737369 0.289665 -0.000138286)
(0.069709 0.273775 -0.000149861)
(0.0745549 0.273259 -6.30612e-05)
(0.0665526 0.243899 -0.000144184)
(0.0695509 0.27312 -0.000162441)
(0.717146 4.48709 -0.00260891)
(0.459336 2.72335 -0.00168112)
(0.760872 4.76184 -0.00289909)
(0.467683 3.1279 -0.00222889)
(0.46032 3.07819 -0.00183907)
(0.483222 2.86481 -0.00198224)
(-0.0315119 -0.23191 0.000125842)
(-0.0200269 -0.135622 0.000111188)
(-0.0010303 -0.00976305 8.00604e-06)
(-0.019203 -0.130819 7.1648e-05)
(-0.000965937 -0.00954969 6.97954e-06)
(0.0628906 0.33025 -0.000173212)
(0.159826 0.790309 -0.000415745)
(0.162203 0.802617 -0.000507896)
(0.0479373 0.258315 -0.000214673)
(0.0220764 0.124806 -9.04892e-05)
(0.0479554 0.25789 -0.000137569)
(0.022131 0.124954 -7.77828e-05)
(0.0407935 0.147868 -2.68788e-05)
(0.0397209 0.143969 -9.15317e-05)
(0.0651418 0.237506 -0.000893937)
(0.0675992 0.246448 -0.000920273)
(0.031522 0.110156 -0.000420307)
(0.0356642 0.128542 -0.000485136)
(0.037401 0.130705 -0.000483362)
(0.0373476 0.134604 -0.000503353)
(0.273577 0.80325 -0.000314844)
(0.273947 0.804223 -0.000192046)
(0.28454 0.661185 -0.000205975)
(0.284512 0.661097 -0.000171972)
(-0.191381 1.7732 -0.000290598)
(-0.0620964 1.51681 -0.000353412)
(1.38971 0.921509 -0.000373492)
(-0.854227 2.77779 -0.000830763)
(-0.0643245 1.57082 -0.000457527)
(-0.200639 1.85751 -0.000622379)
(0.0693592 0.254231 -3.1116e-05)
(0.06653 0.243911 -2.20331e-05)
(0.0355458 0.128859 -1.27271e-05)
(0.0325863 0.11452 -1.11881e-05)
(0.0296264 0.104171 -3.04424e-07)
(0.0344919 0.12507 -8.62539e-06)
(0.410615 2.42959 -0.00862983)
(0.384436 2.27437 -0.00813761)
(0.00087344 0.00201184 5.99091e-06)
(-0.00186821 -0.0138548 6.36275e-05)
(-0.0269727 -0.169407 0.000615635)
(-0.023787 -0.149793 0.00054101)
(-0.00669268 -0.0417699 0.000166078)
(-0.00312172 -0.0211092 8.98572e-05)
(1.36499 0.903756 -0.00390399)
(1.3738 0.909618 -0.00392738)
(1.37971 0.913561 -0.00393714)
(1.37453 0.910109 -0.00392863)
(-0.0206872 -0.122731 0.000466385)
(-0.0149522 -0.0895557 0.000342553)
(0.34963 2.06739 -0.00738937)
(0.374526 2.21548 -0.00793156)
(-0.0933758 -0.751409 0.00267685)
(-0.0284136 -0.17828 0.00064872)
(-0.032503 -0.203463 0.000743555)
(-0.00833512 -0.0512726 0.000200841)
(-0.0129315 -0.077866 0.000299381)
(0.197413 0.855763 -0.00314298)
(0.512579 2.51177 -0.00906016)
(0.189432 0.821272 -0.00300604)
(0.4776 2.33961 -0.00847818)
(0.282978 2.40793 -0.00856438)
(0.291266 2.47887 -0.00882677)
(0.0669272 0.273614 -0.000610453)
(0.0541829 0.200833 -0.000713086)
(0.0569825 0.21125 -0.000752298)
(0.0630321 0.257597 -0.00122904)
(0.100328 0.439002 -0.00152911)
(0.0673971 0.30898 -0.00106241)
(0.0959585 0.419742 -0.00145541)
(0.0714273 0.32763 -0.00113313)
(0.0602385 0.223368 -0.000797749)
(0.0579134 0.214715 -0.000765654)
(0.0716743 0.293139 -0.000658876)
(-0.00228739 1.37579 -0.00477614)
(0.057501 0.860303 -0.00302145)
(0.0587949 0.879777 -0.00308901)
(-0.00223464 1.3492 -0.00468326)
(-0.0642571 1.58717 -0.00547392)
(1.3632 0.902556 -0.00389624)
(-0.0649805 1.60481 -0.00553555)
(-0.002306 1.38495 -0.00480645)
(0.0602628 0.901906 -0.00316506)
(-0.00233738 1.39819 -0.00485263)
(0.0592218 0.886208 -0.00311126)
(-0.0638286 1.57667 -0.00543908)
(1.3605 0.900765 -0.00388796)
(-0.0626458 1.54767 -0.00533792)
(0.317048 2.69906 -0.00957056)
(0.311191 2.64898 -0.00939939)
(0.0438449 0.162366 -0.000566541)
(0.0481448 0.178366 -0.000627657)
(0.056554 0.230959 -0.00109342)
(0.0529808 0.196361 -0.000696177)
(0.061223 0.250158 -0.000551779)
(0.0495961 0.183765 -0.000648055)
(0.0845475 0.369428 -0.0012644)
(0.0620089 0.284044 -0.000968837)
(0.0897656 0.39244 -0.00135254)
(0.0572776 0.262141 -0.00088516)
(-0.057738 1.42709 -0.00492113)
(-0.0599957 1.48264 -0.00511121)
(1.34046 0.887454 -0.00382341)
(0.0520797 0.778807 -0.00273868)
(-0.0020093 1.2307 -0.00427251)
(-0.00211078 1.28595 -0.00446237)
(0.0544101 0.813804 -0.00286022)
(-0.00214182 1.30218 -0.004519)
(0.056946 0.85193 -0.00299309)
(0.0552052 0.825755 -0.00290092)
(-0.00221045 1.33774 -0.00464476)
(-0.0606701 1.4992 -0.00516883)
(1.34584 0.891026 -0.00383904)
(-0.0621664 1.53594 -0.00529886)
(0.0747918 0.292948 -0.00111981)
(0.0749791 0.293548 -0.00112234)
(0.0551474 0.201408 -0.000789178)
(0.0554143 0.202522 -0.000795591)
(0.0751309 0.294456 -0.00112442)
(0.239805 1.13021 -0.00414834)
(0.403152 1.97264 -0.00721974)
(0.225079 1.0149 -0.0037476)
(0.174213 0.753474 -0.002815)
(0.175227 0.758025 -0.00282814)
(0.232127 1.04726 -0.00386191)
(0.411107 2.01192 -0.00733054)
(0.251251 1.18465 -0.00433878)
(0.0763095 0.298517 -0.00113582)
(0.0759263 0.297067 -0.00113206)
(0.0749749 0.293483 -0.00112174)
(0.0551874 0.201508 -0.000788571)
(0.056639 0.206677 -0.000802333)
(0.263067 1.75219 -0.00627963)
(0.419502 2.61637 -0.00940008)
(0.275915 1.63014 -0.00586801)
(0.282445 1.66886 -0.00600486)
(0.449904 2.80646 -0.0100557)
(0.440197 2.74585 -0.00984789)
(0.269722 1.79665 -0.0064245)
(-0.000318869 -0.00447228 4.66554e-05)
(-0.0252088 -0.14889 0.00056381)
(0.0548438 0.268212 -0.000895355)
(0.00746433 0.0369814 -9.64066e-05)
(-0.0276532 -0.163031 0.000617008)
(-0.00792713 -0.0458332 0.000201727)
(-0.0652099 -0.432749 0.00159443)
(-0.0527779 -0.328357 0.00122043)
(-0.0657254 -0.477482 0.00173217)
(-0.0509931 -0.317327 0.00117501)
(-0.0612044 -0.406267 0.00148594)
(0.461091 2.87644 -0.0102978)
(0.470349 2.93436 -0.0104952)
(0.293125 1.9531 -0.00696167)
(0.287189 1.91342 -0.00682532)
(-0.0197845 -0.110451 0.000452099)
(-0.0371949 -0.218283 0.000829736)
(0.0481746 0.235069 -0.00077022)
(0.00415363 0.0194699 -3.06194e-05)
(0.0419552 0.204143 -0.000654104)
(-0.0347893 -0.204327 0.000774507)
(-0.0109534 -0.0622876 0.000263936)
(0.0290355 0.104844 -0.000416099)
(0.0294402 0.106393 -0.00042358)
(0.0290359 0.104817 -0.000415264)
(0.0299121 0.1079 -0.000423104)
(0.121849 0.356743 -0.00123995)
(0.147944 0.433358 -0.0015412)
(0.196067 0.454776 -0.00167112)
(0.190801 0.442553 -0.00162439)
(0.163304 0.378723 -0.00137806)
(0.171518 0.397799 -0.00145534)
(0.154968 0.453985 -0.00162159)
(-0.609388 1.98496 -0.0065329)
(1.32321 0.875989 -0.00376251)
(-0.0563339 1.39265 -0.00479976)
(-0.169264 1.57495 -0.00536831)
(-0.581872 1.8955 -0.00629962)
(-0.511637 1.66611 -0.00538626)
(-0.529896 1.72593 -0.0056859)
(-0.146481 1.36371 -0.00464391)
(-0.0505104 1.2495 -0.00430052)
(1.30671 0.865031 -0.00368949)
(-0.564595 1.83937 -0.00605884)
(0.0867781 0.316449 -0.00112985)
(0.0798544 0.291179 -0.00105621)
(0.140481 0.132338 -0.000542383)
(0.398556 -0.16549 0.000368735)
(0.383285 -0.159147 0.00035319)
(0.154245 0.145316 -0.000589572)
(0.0535836 0.187389 -0.000658897)
(0.050027 0.180368 -0.000641775)
(0.0454943 0.164001 -0.00059381)
(0.0401436 0.140298 -0.000512433)
(0.185017 0.174323 -0.000700025)
(0.41631 -0.172852 0.00037602)
(0.434402 -0.180328 0.000384686)
(0.169927 0.160103 -0.000643765)
(0.597007 2.92789 -0.00471277)
(0.218959 0.949908 -0.00153495)
(0.204229 0.885978 -0.00160682)
(0.621164 3.04625 -0.0054797)
(0.21276 0.922815 -0.00251942)
(0.58681 2.87667 -0.0075539)
(0.208512 0.904295 -0.00237864)
(0.645575 3.16522 -0.00868626)
(0.19186 0.832016 -0.00278383)
(0.700314 3.43303 -0.0110116)
(0.199085 0.863368 -0.00278828)
(0.678194 3.32436 -0.0110723)
(-0.0671696 -0.543157 0.000776559)
(-0.0342697 -0.251133 0.000383171)
(-0.04688 -0.341695 0.0011939)
(-0.0596343 -0.433594 0.00156071)
(-0.0976573 -0.785537 0.00281036)
(-0.0532866 -0.523982 0.00125564)
(-0.00543077 -0.163941 0.000417273)
(-0.00538062 -0.162545 0.000381063)
(-7.08949e-05 -0.0238482 6.1912e-05)
(8.89501e-05 -0.0121798 2.72929e-05)
(-0.00221635 -0.0169437 2.92854e-05)
(-0.0679862 -0.549545 0.00100103)