/*--------------------------------*- C++ -*----------------------------------*\
| =========                 |                                                 |
| \\      /  F ield         | OpenFOAM: The Open Source CFD Toolbox           |
|  \\    /   O peration     | Version:  2306                                  |
|   \\  /    A nd           | Website:  www.openfoam.com                      |
|    \\/     M anipulation  |                                                 |
\*---------------------------------------------------------------------------*/
FoamFile
{
    version     2.0;
    format      ascii;
    arch        "LSB;label=32;scalar=64";
    class       volScalarField;
    location    "1.1";
    object      p;
}
// * * * * * * * * * * * * * * * * * * * * * * * * * * * * * * * * * * * * * //

dimensions      [0 2 -2 0 0 0 0];

internalField   nonuniform List<scalar> 
111542
(
61.7087
63.0048
66.1122
71.1981
78.3273
87.694
99.4421
113.591
129.648
146.204
160.735
169.282
167.845
155.258
134.577
111.515
90.0573
71.6955
56.5404
44.3917
34.8151
27.4566
21.917
17.6964
14.4836
12.0199
10.0309
8.48427
7.33114
6.4453
5.74435
5.17216
4.74074
4.37907
4.03473
3.66496
3.21567
2.6813
1.96026
0.959207
60.5332
61.7868
64.859
69.8812
76.9989
86.5107
98.7717
114.022
132.093
151.925
170.863
183.408
182.023
165.434
139.428
112.637
89.2319
69.8796
54.3178
42.1216
32.7761
25.7161
20.4101
16.4841
13.5314
11.2425
9.44763
8.0619
6.99788
6.16397
5.49697
4.95729
4.52037
4.14589
3.79347
3.4247
2.99547
2.4606
1.74972
0.8053
58.2092
59.3926
62.3189
67.1551
74.1567
83.815
96.8247
113.981
135.942
162.553
190.512
211.29
210.811
185.055
148.723
115.562
88.4743
67.134
50.7609
38.4519
29.3972
22.9529
18.2497
14.7637
11.9324
9.63889
7.90619
6.64296
5.71128
5.00928
4.47508
4.06594
3.74601
3.48171
3.23735
2.97641
2.65418
2.21526
1.58773
0.698166
54.8046
55.8591
58.4887
62.9081
69.4856
78.9306
92.3756
111.506
138.72
177.26
211.883
253.878
258.92
217.659
165.274
124.847
92.1398
67.4582
49.5135
36.5585
23.531
17.6105
14.8956
13.2232
11.1612
9.11015
7.48278
6.25788
5.30398
4.54448
3.94338
3.47063
3.09657
2.79093
2.52453
2.26552
1.96859
1.57294
0.989514
0.1173
50.4516
51.297
53.4278
57.0774
62.6707
71.0378
83.6108
102.803
132.637
177.076
253.462
338.969
361.919
253.539
168.783
120.359
81.5935
55.6463
38.6598
27.8261
21.0229
7.75684
6.35688
6.31218
5.44756
4.55787
3.94255
3.49582
3.12829
2.82063
2.56939
2.36463
2.19628
2.0518
1.92132
1.78926
1.62526
1.37592
0.929641
0.037611
45.372
45.9212
47.3288
49.7908
53.6743
59.7054
69.2092
84.6395
110.768
165.24
258.587
452.849
616.322
243.128
170.051
111.502
65.3737
39.9463
25.0359
16.1332
13.5708
13.225
12.2969
7.64476
4.54731
3.09952
2.32206
1.75386
1.3133
0.995146
0.777748
0.63356
0.54287
0.492466
0.471416
0.467026
0.463451
0.442412
0.396489
0.408239
39.8865
40.0648
40.5635
41.4784
42.9868
45.4276
49.3914
55.8768
66.6051
105.977
181.768
412.781
1946.02
-425.045
197.971
75.2354
29.6423
15.3566
7.60083
-1.55889
-5.17766
14.8804
14.6999
9.42178
6.10724
4.69892
3.95346
3.36238
2.87555
2.50604
2.23381
2.02955
1.87518
1.75841
1.67117
1.60569
1.5443
1.46899
1.34173
1.06955
34.407
34.1795
33.6875
32.8958
31.7368
30.0467
27.4376
22.9844
14.3264
16.7284
0.0287672
-161.152
-1004.87
-1043.14
-311.465
-102.315
-47.2159
-26.4281
-16.9229
-10.4662
-3.65867
-8.45163
-6.31154
-4.48622
-3.53482
-2.61915
-1.74585
-1.05568
-0.534038
-0.119246
0.224645
0.513029
0.756159
0.960805
1.1304
1.26227
1.33854
1.32263
1.13809
0.647312
29.3226
28.759
27.3364
24.942
21.3219
15.9342
7.77702
-5.01999
-26.0613
-49.08
-122.394
-266.829
-477.116
-505.494
-319.986
-175.495
-100.829
-61.3387
-39.1656
-25.1227
-15.1771
-8.51372
-4.32655
-1.34722
0.39435
1.43803
2.15081
2.63327
2.9343
3.11113
3.20888
3.25396
3.26047
3.23488
3.17626
3.07627
2.90896
2.62197
2.11501
1.19217
25.1357
24.2545
22.0686
18.3922
12.8623
4.77268
-7.05964
-24.5825
-51.0597
-92.0888
-149.636
-222.235
-287.58
-295.771
-238.298
-165.271
-109.894
-74.2546
-51.1336
-35.1307
-23.8034
-16.2825
-11.2647
-7.71898
-5.23157
-3.47453
-2.16631
-1.16031
-0.385208
0.214182
0.684499
1.05836
1.35458
1.58182
1.73809
1.81495
1.7867
1.60751
1.21343
0.55436
22.1373
21.0377
18.3286
13.7902
7.02167
-2.67839
-16.391
-35.5863
-62.1169
-97.8505
-142.796
-191.822
-230.285
-237.368
-206.945
-158.092
-113.583
-81.0328
-58.1785
-41.5582
-29.2318
-20.2341
-13.6782
-8.88843
-5.40088
-2.87566
-1.03757
0.30837
1.28978
1.99792
2.50296
2.85624
3.09149
3.22687
3.26025
3.2006
3.02223
2.67606
2.08736
1.1253
20.5751
19.3782
16.3899
11.4416
4.06261
-6.35426
-20.8034
-40.4077
-66.3136
-98.8866
-136.668
-174.319
-201.934
-207.946
-188.17
-152.116
-114.543
-84.0037
-61.3202
-44.428
-31.6979
-22.2109
-15.2769
-10.2556
-6.66704
-4.08923
-2.22207
-0.857149
0.147426
0.889205
1.43811
1.84334
2.13814
2.3448
2.40744
2.3993
2.27621
1.98521
1.4743
0.690919
61.2472
62.4899
65.5318
70.4679
77.3747
86.4349
97.8203
111.502
126.987
142.958
156.97
165.163
163.593
151.261
131.099
108.608
87.7221
69.8412
55.0974
43.2639
33.9693
26.8025
21.3621
17.2605
14.136
11.6965
9.76024
8.25186
7.10047
6.21585
5.52629
4.98345
4.55702
4.20254
3.87689
3.53906
3.14403
2.64325
1.95697
0.986219
60.0792
61.2917
64.2771
69.1493
76.046
85.2536
97.117
111.859
129.318
148.491
166.803
179.022
177.371
161.102
135.753
109.674
86.8931
68.0557
52.9203
41.06
31.9569
25.0419
19.8383
16.0272
13.1702
10.9366
9.17738
7.81187
6.75582
5.92866
5.27252
4.7485
4.32605
3.96976
3.64391
3.31063
2.92694
2.43825
1.77262
0.852235
57.7745
58.9172
61.7527
66.4388
73.2169
82.5593
95.1381
111.726
132.973
158.755
185.858
205.923
205.536
180.334
144.888
112.604
86.2008
65.3937
49.4506
37.4659
28.5868
22.2245
17.6256
14.2467
11.4967
9.26611
7.58572
6.36436
5.46356
4.78439
4.26952
3.87906
3.5791
3.33759
3.12304
2.90029
2.62667
2.24167
1.65953
0.763275
54.4001
55.4144
57.956
62.2297
68.5873
77.7137
90.7095
109.222
135.614
173.11
208.193
249.419
254.281
213.349
162.006
122.459
90.3367
66.067
48.4408
35.6984
22.2533
16.1727
14.0354
12.7322
10.744
8.68991
7.07111
5.86626
4.93547
4.2019
3.63089
3.19149
2.85429
2.5895
2.37013
2.16647
1.93708
1.61582
1.08977
0.16512
50.0886
50.8963
52.948
56.4666
61.8599
69.9328
82.083
100.68
129.704
174.14
249.486
333.94
356.177
248.079
165.163
118.388
80.2093
54.5126
37.6708
26.8295
19.4667
3.95429
3.77518
4.85512
4.48208
3.82426
3.35861
3.00869
2.69674
2.42141
2.19419
2.01348
1.87474
1.76823
1.68492
1.61336
1.52837
1.37423
1.01275
0.0549409
45.0614
45.5776
46.9213
49.2791
53.0045
58.8046
67.9802
82.9564
108.484
162.855
255.88
448.846
610.987
235.946
163.225
111.217
65.4762
39.7187
24.4812
15.288
11.1092
12.8773
11.7153
7.14297
4.09877
2.67938
1.93347
1.40054
0.993603
0.705095
0.513062
0.390043
0.31928
0.289192
0.29348
0.328133
0.39009
0.479821
0.614769
0.904067
39.6317
39.7908
40.2462
41.0925
42.5034
44.8119
48.6065
54.9002
65.4712
104.808
180.616
411.945
1934.01
163.878
79.5838
31.4807
15.7855
6.81545
-3.52142
-8.85264
14.2466
13.7592
8.1086
4.80633
3.5658
2.98747
2.52851
2.1355
1.82285
1.57695
1.37854
1.22082
1.10004
1.01748
0.974878
0.97245
1.01635
1.1337
1.45055
34.2004
33.9765
33.4648
32.6456
31.4582
29.7479
27.1491
22.7928
14.4349
17.0115
1.00292
-157.08
-982.69
-1026.62
-306.852
-100.625
-46.2716
-26.0622
-17.0051
-10.7387
-2.96685
-7.11902
-5.68237
-4.45738
-3.68577
-2.80993
-1.9733
-1.31884
-0.822123
-0.42374
-0.0911915
0.190453
0.432631
0.642662
0.827905
0.991364
1.12491
1.20227
1.15602
0.815231
29.1958
28.618
27.1958
24.8158
21.2314
15.9208
7.92193
-4.5689
-25.0435
-47.8545
-119.57
-261.628
-468.89
-495.128
-314.475
-172.209
-98.7508
-60.1918
-38.6487
-24.9322
-14.8741
-8.23181
-4.54788
-1.89766
-0.213495
0.858815
1.60183
2.10937
2.43186
2.62362
2.72871
2.77559
2.78176
2.75755
2.70696
2.62733
2.49899
2.27581
1.86263
1.0651
25.0454
24.1649
22.0026
18.3706
12.9223
4.97989
-6.59957
-23.6982
-49.4814
-89.4131
-145.434
-216.228
-280.27
-288.109
-231.961
-160.806
-107.029
-72.557
-50.2246
-34.7367
-23.7147
-16.3168
-11.4564
-8.00937
-5.55787
-3.811
-2.50653
-1.50219
-0.728091
-0.130132
0.33845
0.710923
1.00735
1.23778
1.40351
1.49827
1.49999
1.36622
1.03625
0.461113
22.0791
20.9918
18.3141
13.8352
7.18189
-2.33246
-15.7471
-34.4818
-60.3235
-95.0915
-138.804
-186.488
-223.96
-230.977
-201.331
-153.87
-110.69
-79.1808
-57.0715
-40.973
-29.0034
-20.2341
-13.8245
-9.14749
-5.7367
-3.2543
-1.43573
-0.0969187
0.882511
1.59005
2.09447
2.44669
2.68082
2.81688
2.86112
2.81438
2.65677
2.34558
1.81359
0.950793
20.5362
19.3442
16.4037
11.5066
4.27266
-5.94836
-20.0847
-39.2306
-64.4478
-96.1627
-132.917
-169.535
-196.419
-202.379
-183.226
-148.113
-111.616
-82.044
-60.0864
-43.7239
-31.3653
-22.1339
-15.3712
-10.4818
-6.95991
-4.41605
-2.56616
-1.20872
-0.206505
0.535025
1.08411
1.48902
1.78135
1.97729
2.07328
2.0777
1.96829
1.70448
1.24195
0.552363
60.3312
61.4952
64.3633
69.0057
75.4864
83.9683
94.6043
107.344
121.717
136.501
149.395
156.813
155.1
143.286
124.13
102.809
83.0248
66.0899
52.1419
40.9565
32.1706
25.3573
20.1411
16.2048
13.2136
10.8802
9.03853
7.60218
6.49878
5.65265
4.99829
4.48748
4.08303
3.75
3.45258
3.15279
2.8084
2.36747
1.76185
0.903838
59.1825
60.3162
63.1229
67.6991
74.163
82.7731
93.8414
107.563
123.782
141.566
158.534
169.689
168.002
152.495
128.464
103.786
82.2138
64.3754
50.07
38.8812
30.2901
23.6757
18.6583
15.0123
12.3042
10.1801
8.49292
7.17168
6.14312
5.33725
4.70048
4.19439
3.7874
3.44909
3.1489
2.85311
2.522
2.10315
1.53004
0.734584
56.917
57.9804
60.6363
65.0257
71.3631
80.0808
91.7991
107.238
127.017
151.052
176.366
195.216
194.583
170.603
137.094
106.576
81.5233
61.7919
46.7389
35.4913
27.2516
21.1192
16.5629
13.2743
10.6632
8.54897
6.94049
5.76074
4.88644
4.22718
3.72974
3.35587
3.07232
2.85087
2.66447
2.48429
2.27266
1.97332
1.4982
0.714506
53.6039
54.5408
56.9096
60.8959
66.8187
75.3116
87.4027
104.647
129.304
164.506
199.09
238.492
242.984
203.437
154.485
116.894
86.0499
62.77
45.9488
33.85
20.9807
15.4119
13.2882
11.8914
9.8075
7.67438
5.99413
4.74387
3.7835
3.03584
2.46337
2.03226
1.71122
1.47262
1.29476
1.15565
1.02343
0.840696
0.498197
-0.197518
49.3764
50.1125
52.0091
55.2693
60.266
67.7497
79.0382
96.388
123.641
166.955
239.469
321.176
342.525
236.778
158.188
113.881
76.6515
51.6621
35.4136
24.9975
18.1677
3.40952
3.60829
4.69875
4.07685
3.14071
2.47522
1.99582
1.60184
1.27968
1.03225
0.851468
0.728904
0.652926
0.618994
0.623743
0.658888
0.688191
0.585987
-0.0883372
44.4556
44.9103
46.129
48.2812
51.6915
57.0246
65.5205
79.5137
103.657
156.813
248.054
437.715
596.205
222.35
158.144
109.487
63.6948
37.7641
22.6964
13.6819
10.8199
8.98284
8.08369
3.66029
0.532518
-1.00752
-1.78764
-2.28024
-2.61161
-2.81315
-2.91737
-2.95802
-2.94113
-2.87743
-2.76501
-2.59256
-2.33589
-1.94986
-1.3329
-0.173579
39.1408
39.2637
39.6357
40.3481
41.5636
43.6003
47.0291
52.8723
62.9868
101.754
177.201
408.525
1918.18
169.7
83.2086
32.2854
14.6054
5.38419
-4.07434
-6.47775
13.2292
11.7923
5.78581
2.40145
1.07663
0.411236
-0.100491
-0.509403
-0.810886
-1.02395
-1.17031
-1.2606
-1.29355
-1.26531
-1.16311
-0.961803
-0.618363
-0.0404011
0.967958
33.8323
33.5914
33.0429
32.1733
30.9287
29.169
26.5714
22.3692
14.5504
17.5798
3.47437
-147.941
-960.582
-1002.17
-296.894
-95.3264
-43.7646
-25.3113
-17.2157
-11.3486
-3.98975
-8.06994
-7.31719
-6.41183
-5.52576
-4.47106
-3.50163
-2.7424
-2.158
-1.69112
-1.30601
-0.981622
-0.702403
-0.454457
-0.217546
0.0227387
0.278586
0.545429
0.77384
0.758359
28.9463
28.3642
26.9501
24.5996
21.0848
15.9233
8.22812
-3.66574
-23.0052
-44.8149
-112.851
-249.054
-449.643
-475.652
-300.81
-163.835
-93.9773
-57.738
-37.6027
-24.6884
-15.0623
-9.19546
-5.73371
-3.14613
-1.44717
-0.360124
0.387727
0.901433
1.23549
1.44347
1.57135
1.64901
1.69538
1.7217
1.73885
1.74942
1.74376
1.68686
1.48806
0.930469
24.8895
24.0219
21.905
18.3642
13.0805
5.42713
-5.65495
-21.9132
-46.303
-83.9657
-136.803
-203.838
-264.952
-272.707
-219.482
-152.141
-101.557
-69.3151
-48.4489
-33.9479
-23.6339
-16.7938
-12.0209
-8.59449
-6.20605
-4.51317
-3.22715
-2.21551
-1.42189
-0.799727
-0.304441
0.0961243
0.42325
0.686451
0.893892
1.04334
1.11942
1.08609
0.881193
0.425642
21.9911
20.9283
18.3199
13.9716
7.54295
-1.60284
-14.4264
-32.2425
-56.7087
-89.5286
-130.755
-175.801
-211.383
-218.243
-190.347
-145.595
-105.003
-75.4785
-54.7693
-39.6636
-28.4095
-20.1345
-13.9758
-9.45813
-6.18132
-3.79886
-2.04115
-0.73454
0.230182
0.934347
1.44399
1.80866
2.06254
2.22591
2.30988
2.31387
2.22239
1.99895
1.57885
0.844423
20.4798
19.321
16.4629
11.711
4.73034
-5.08905
-18.5989
-36.8109
-60.6965
-90.6578
-125.331
-159.891
-185.348
-191.144
-173.227
-140.213
-105.911
-78.1661
-57.5639
-42.1876
-30.5468
-21.8204
-15.3783
-10.6806
-7.27802
-4.81699
-3.02274
-1.69707
-0.708894
0.030585
0.585604
1.00245
1.31197
1.53075
1.66484
1.7107
1.65268
1.45842
1.08474
0.489898
59.0072
60.062
62.6744
66.8973
72.7711
80.4236
89.9703
101.339
114.082
127.093
138.302
144.522
142.603
131.587
113.972
94.4302
76.2847
60.7427
47.9562
37.7177
29.6716
23.3809
18.4785
14.7168
11.8551
9.6468
7.92126
6.57905
5.54613
4.75212
4.13721
3.65773
3.28006
2.97443
2.7111
2.45867
2.18122
1.83377
1.35949
0.692862
57.8868
58.91
61.4592
65.6111
71.4548
79.2031
89.1136
101.335
115.702
131.372
146.243
155.695
153.927
139.651
117.705
95.1778
75.4221
59.0739
46.0004
35.8109
27.9915
21.8106
16.9877
13.4564
10.8738
8.88004
7.30237
6.06385
5.1001
4.34794
3.75662
3.29004
2.92006
2.62059
2.36675
2.13169
1.88258
1.57474
1.15
0.550451
55.6791
56.6316
59.0307
62.9937
68.6957
76.5052
86.9566
100.672
118.188
139.432
161.762
178.493
177.469
155.602
125.285
97.5181
74.548
56.4841
42.8082
32.7153
25.5138
19.5584
14.7032
11.3687
9.00994
7.19283
5.79794
4.75102
3.95958
3.3524
2.887
2.53339
2.2671
2.06581
1.91241
1.78668
1.66171
1.49046
1.18887
0.602739
52.4564
53.2859
55.4074
58.9792
64.2707
71.8318
82.5656
97.8503
119.713
151.021
183.961
219.922
223.775
187.1
142.427
107.872
79.0757
57.4775
42.038
31.0883
19.368
13.988
10.928
9.10812
7.27467
5.55662
4.20366
3.18366
2.38952
1.76348
1.27728
0.910079
0.638968
0.443794
0.318173
0.253387
0.236986
0.232162
0.144299
-0.264978
48.3524
48.9918
50.666
53.5506
57.9655
64.5694
74.5341
89.8822
114.12
154.803
221.625
297.96
317.951
218.288
147.449
105.969
70.0655
46.4733
31.4647
21.9378
15.3227
-1.32252
-0.0293518
2.03064
2.0404
1.45258
0.943092
0.511688
0.108989
-0.248559
-0.542928
-0.763611
-0.920188
-1.01651
-1.04259
-0.986129
-0.828381
-0.565716
-0.277758
-0.39678
43.5845
43.9617
45.0016
46.8523
49.7945
54.4169
61.8295
74.158
95.7269
145.879
232.892
415.72
567.906
202.173
153.107
104.442
57.7219
32.4412
18.4541
10.2053
3.51431
-3.02697
-0.312135
-0.833699
-2.05043
-2.76383
-3.15716
-3.47753
-3.76265
-3.99424
-4.16864
-4.30267
-4.37988
-4.401
-4.34654
-4.18074
-3.83989
-3.20785
-2.07702
-0.104649
38.4479
38.5161
38.7688
39.2859
40.2076
41.8149
44.6257
49.6084
58.5961
95.5596
169.321
402.016
1884.98
185.544
82.2124
28.2052
10.8805
2.52584
-6.98833
-14.8419
12.913
10.504
4.01811
0.31555
-1.38066
-2.34653
-3.0498
-3.57863
-3.96466
-4.24289
-4.43313
-4.5554
-4.6123
-4.57653
-4.41556
-4.06448
-3.4095
-2.25126
-0.284805
33.3221
33.055
32.4557
31.5121
30.1745
28.3151
25.6583
21.5566
14.3076
17.6692
6.3411
-131.407
-904.529
-963.097
-273.713
-86.5863
-41.4501
-25.7201
-18.7066
-13.189
-4.34958
-7.50544
-7.0983
-6.52994
-5.84361
-5.00275
-4.20978
-3.57168
-3.07645
-2.68655
-2.373
-2.10284
-1.88189
-1.68246
-1.46882
-1.21069
-0.868938
-0.403445
0.183877
0.6625
28.6081
28.0241
26.6244
24.3149
20.8922
15.9281
8.6395
-2.4362
-20.1634
-40.2523
-102.431
-228.248
-416.413
-441.548
-276.718
-150.372
-87.0717
-54.527
-36.4501
-24.7772
-16.0419
-11.2987
-7.06685
-3.94231
-2.24798
-1.35109
-0.772404
-0.377151
-0.125728
0.0248066
0.114966
0.172107
0.20845
0.239961
0.283879
0.352274
0.451414
0.571419
0.646835
0.485117
24.6913
23.8459
21.795
18.3859
13.3368
6.09156
-4.28764
-19.346
-41.7028
-75.9325
-123.829
-184.793
-240.763
-248.253
-200.1
-139.2
-93.6674
-64.6937
-45.9092
-32.8486
-23.6387
-17.6623
-12.5761
-8.86162
-6.50043
-4.93718
-3.75731
-2.81875
-2.07851
-1.49634
-1.03041
-0.649603
-0.335393
-0.0748964
0.145065
0.327513
0.46651
0.539032
0.491631
0.241799
21.8902
20.8671
18.3605
14.2023
8.09546
-0.524054
-12.5052
-29.0021
-51.469
-81.4067
-118.872
-159.809
-192.312
-198.829
-173.753
-133.374
-96.7865
-70.1625
-51.4337
-37.7373
-27.5303
-19.9925
-14.1314
-9.72515
-6.5572
-4.29221
-2.63493
-1.40627
-0.50129
0.157633
0.634314
0.976997
1.21879
1.38097
1.47795
1.51212
1.47328
1.33433
1.04363
0.518657
20.4311
19.3178
16.5797
12.0467
5.4286
-3.81491
-16.4353
-33.3115
-55.2817
-82.6744
-114.248
-145.685
-168.913
-174.387
-158.375
-128.672
-97.7229
-72.6286
-53.9386
-39.9478
-29.329
-21.3297
-15.3282
-10.8401
-7.54704
-5.17204
-3.45173
-2.18401
-1.23894
-0.53155
-0.000459469
0.399376
0.698345
0.914746
1.05747
1.12523
1.10567
0.974351
0.698013
0.257868
57.3547
58.2774
60.5742
64.2792
69.4037
76.0292
84.2195
93.8686
104.545
115.27
124.281
128.902
126.636
116.654
101.099
83.9124
67.9039
54.1413
42.7974
33.7079
26.5662
20.9862
16.6075
13.1821
10.537
8.49324
6.90207
5.66662
4.7199
3.99281
3.43161
2.99762
2.66027
2.39307
2.16974
1.96498
1.75074
1.49078
1.13799
0.620333
56.2704
57.1602
59.3922
63.0201
68.0962
74.7729
83.2317
93.5479
105.523
118.396
130.437
137.511
135.435
122.825
103.76
84.1629
66.841
52.4358
40.911
31.946
25.1112
19.7303
15.4636
12.1896
9.71929
7.80397
6.29144
5.10346
4.1957
3.4959
2.95258
2.53135
2.20506
1.94816
1.74165
1.56427
1.39091
1.18831
0.909243
0.488456
54.1365
54.9557
57.0388
60.474
65.3858
72.0566
80.8972
92.3738
106.861
124.213
142.183
155.495
153.853
135.021
109.234
85.364
65.354
49.5588
37.639
28.9737
23.177
18.2149
13.5967
10.2372
7.9555
6.26698
4.96906
3.97308
3.21378
2.64095
2.20879
1.88263
1.64173
1.46599
1.34454
1.2655
1.21574
1.16615
1.04938
0.68151
51.029
51.7297
53.5468
56.6035
61.104
67.4823
76.4546
89.1092
107.038
132.495
162.122
192.193
194.829
162.979
124.968
94.8304
69.2264
50.2091
36.7503
27.4927
18.9428
16.3134
11.1522
7.35579
4.87107
3.08505
1.78329
0.871927
0.214829
-0.255672
-0.597041
-0.84393
-1.01241
-1.11959
-1.16046
-1.12448
-0.999454
-0.781242
-0.505523
-0.375898
47.0814
47.6064
49.0065
51.4213
55.1004
60.5701
68.7691
81.3223
101.06
136.938
193.288
258.897
275.781
188.457
130.82
92.8553
59.7678
38.8208
25.8777
18.1852
15.5823
7.50123
5.14957
3.48615
1.82305
0.436453
-0.606007
-1.39269
-2.01741
-2.47806
-2.81611
-3.04938
-3.19772
-3.27833
-3.27421
-3.1466
-2.84683
-2.29555
-1.44092
-0.609287
42.5081
42.7945
43.6136
45.0846
47.4276
51.1123
57.0277
66.8986
84.2702
128.349
205.825
371.57
512.554
172.449
154.312
93.1207
46.9564
23.7585
11.6038
4.44141
-3.94552
-31.8138
-28.7256
-26.5179
-25.329
-24.0761
-22.8562
-21.8413
-21.002
-20.3061
-19.6988
-19.1638
-18.6578
-18.1382
-17.566
-16.8769
-15.9442
-14.5074
-11.9793
-6.86008
37.5955
37.5981
37.704
37.9746
38.5142
39.5357
41.4486
45.0351
51.8249
84.3729
151.456
371.515
1820.89
272.086
65.8592
12.8305
-2.79731
-9.35419
-14.4537
-19.1838
-2.52962
-4.91558
-9.4114
-11.7006
-12.5846
-12.9937
-13.2515
-13.4057
-13.4725
-13.4607
-13.3962
-13.2464
-13.0185
-12.6916
-12.2028
-11.4344
-10.1416
-7.84973
-3.77528
32.7004
32.4028
31.7419
30.7037
29.2358
27.2173
24.4042
20.2506
13.3709
16.2775
6.99027
-116.199
-830.381
-858.482
-237.808
-79.0942
-42.8354
-29.9026
-23.5422
-18.0448
-12.1803
-21.3085
-17.361
-13.4544
-11.201
-9.66969
-8.51365
-7.66873
-7.06346
-6.62454
-6.29554
-6.02693
-5.8023
-5.58572
-5.3342
-4.99332
-4.48631
-3.69011
-2.45492
-0.769094
28.2019
27.6221
26.241
23.9785
20.6597
15.918
9.09214
-1.03243
-16.8046
-34.5901
-88.5207
-198.017
-363.337
-383.801
-240.112
-132.455
-78.9517
-51.1562
-35.5038
-25.5815
-19.6591
-18.4684
-12.3183
-7.31863
-4.79496
-3.51427
-2.69416
-2.13175
-1.76509
-1.53318
-1.38196
-1.27652
-1.19577
-1.11183
-1.00347
-0.846533
-0.612232
-0.273434
0.15123
0.442038
24.4662
23.6507
21.6829
18.434
13.67
6.91872
-2.60422
-16.1807
-35.9679
-65.7036
-106.788
-158.811
-206.504
-213.42
-173.39
-122.318
-83.8018
-58.9769
-42.7025
-31.4091
-23.7259
-19.2517
-14.2238
-10.1696
-7.55344
-5.81464
-4.50202
-3.46665
-2.66133
-2.03882
-1.55122
-1.16056
-0.845243
-0.580492
-0.349973
-0.141091
0.0527199
0.224763
0.332496
0.251493
21.7924
20.8183
18.4392
14.5159
8.80492
0.832357
-10.1092
-24.9674
-44.9143
-71.1323
-103.58
-138.773
-166.767
-172.657
-151.71
-117.635
-86.4675
-63.4967
-47.1521
-35.1392
-26.2273
-19.7241
-14.5153
-10.3594
-7.25009
-4.98382
-3.30641
-2.04967
-1.11343
-0.423127
0.0836964
0.455185
0.725323
0.919172
1.05313
1.13455
1.16008
1.10999
0.936041
0.527892
20.3991
19.3437
16.754
12.4909
6.31837
-2.21528
-13.733
-28.9489
-48.5172
-72.6392
-100.184
-127.442
-147.58
-152.516
-139.059
-113.915
-87.4193
-65.681
-49.3179
-36.9853
-27.6009
-20.5292
-15.1733
-11.0359
-7.89587
-5.57628
-3.86558
-2.58439
-1.61462
-0.878837
-0.320114
0.104923
0.427138
0.667132
0.836232
0.937321
0.962506
0.89146
0.690121
0.308669
55.4796
56.2583
58.2044
61.332
65.6219
71.104
77.7821
85.5061
93.8526
101.967
108.416
111.207
108.461
99.6463
86.5175
72.1159
58.6388
46.96
37.2468
29.3784
23.1063
18.1553
14.2899
11.2964
8.98122
7.17425
5.75236
4.63732
3.78373
3.12063
2.6025
2.19782
1.88056
1.63152
1.42676
1.24431
1.06677
0.868654
0.630761
0.309344
54.4369
55.1824
57.0622
60.106
64.3265
69.8074
76.6397
84.805
94.0388
103.61
112.003
116.524
113.875
103.185
87.6198
71.6085
57.2795
45.1931
35.3898
27.6109
21.4689
16.6747
12.9534
10.1183
7.95156
6.24965
4.89001
3.78286
2.97944
2.35068
1.85056
1.46044
1.15902
0.917294
0.730917
0.58598
0.457473
0.328598
0.178189
0.0496466
52.3878
53.0648
54.7975
57.6439
61.6729
67.0664
74.0848
82.991
93.9194
106.55
119.127
127.502
124.905
109.688
89.4615
70.678
54.6836
41.7503
31.768
24.1726
18.1845
13.8919
10.3807
7.71595
5.76339
4.26564
3.1422
2.23591
1.50854
0.971353
0.579463
0.290916
0.0851092
-0.0489619
-0.12991
-0.15815
-0.13904
-0.0762592
0.00995381
0.0780975
49.4115
49.9779
51.458
53.9394
57.5526
62.5932
69.5427
79.0995
92.2015
109.956
134.118
155.108
155.566
130.594
101.132
77.244
56.5989
41.0898
29.9439
22.0033
11.314
8.57697
5.67656
3.10373
1.19255
-0.337137
-1.58994
-2.44785
-3.10521
-3.55183
-3.84816
-4.04123
-4.15009
-4.1916
-4.15979
-4.03237
-3.78844
-3.38022
-2.73358
-1.68394
45.6471
46.0496
47.147
49.0367
51.8855
56.0581
62.189
71.3497
85.3236
113.754
153.346
198.974
207.489
140.139
99.407
70.2694
44.0649
27.441
17.1245
11.0116
9.4584
-2.53231
-3.91836
-4.94488
-6.27179
-7.22798
-8.00907
-8.59555
-9.14122
-9.40835
-9.51684
-9.54993
-9.49358
-9.35529
-9.16459
-8.84538
-8.32623
-7.46527
-6.03287
-3.71445
41.2992
41.4868
42.0625
43.1084
44.7712
47.366
51.4857
58.2511
69.8858
103.668
162.221
286.769
391.786
105.007
115.113
56.7577
18.9896
0.959887
-8.05841
-12.5321
-9.90608
-23.4452
-25.8705
-30.4842
-32.1461
-32.2684
-31.7366
-31.0143
-30.0975
-29.2765
-28.4924
-27.6883
-26.9036
-26.1212
-25.2549
-24.2429
-22.9387
-20.993
-17.5903
-10.7123
36.6457
36.5772
36.5222
36.5158
36.6148
36.9441
37.7438
39.4648
42.9639
67.3171
118.207
299.3
1642.55
254.569
-20.1016
-62.3245
-69.8082
-70.3925
-68.4866
-63.7754
-36.7846
-35.6762
-37.5649
-37.6116
-36.5858
-35.3586
-34.194
-33.092
-32.0773
-31.1127
-30.1947
-29.2879
-28.3454
-27.3703
-26.2625
-24.8597
-22.7794
-19.1327
-11.5989
32.0269
31.6835
30.9545
29.8088
28.1868
25.9663
22.9131
18.5495
11.781
13.066
4.74745
-90.7307
-658.263
-653.127
-194.019
-82.2321
-54.8136
-43.1305
-36.5436
-30.7609
-27.4398
-30.3276
-26.3714
-22.4158
-20.0134
-18.2912
-16.9652
-15.9495
-15.1535
-14.5131
-13.9782
-13.5127
-13.1015
-12.6656
-12.1901
-11.618
-10.8438
-9.67323
-7.74006
-4.28894
27.7543
27.1894
25.83
23.6183
20.4112
15.9044
9.56573
0.468469
-13.0314
-28.1446
-71.1293
-154.576
-278.654
-295.53
-190.758
-110.86
-69.5568
-47.0058
-33.8033
-25.4648
-22.7965
-18.0551
-14.5988
-11.6104
-9.73166
-8.4841
-7.53306
-6.77785
-6.17847
-5.70144
-5.3155
-4.99334
-4.71952
-4.46126
-4.19397
-3.88699
-3.49384
-2.9484
-2.16131
-1.02638
24.2357
23.4592
21.582
18.5107
14.0617
7.85641
-0.719173
-12.6355
-29.4691
-53.8963
-86.6291
-126.737
-162.594
-168.9
-139.991
-101.658
-71.5563
-51.3315
-37.6144
-27.8718
-21.0769
-17.3502
-13.9623
-11.0626
-8.87678
-7.24674
-5.97472
-4.96013
-4.15204
-3.50743
-2.98803
-2.56155
-2.20769
-1.90092
-1.62356
-1.35991
-1.09787
-0.828223
-0.55271
-0.282048
21.7113
20.7927
18.5582
14.8987
9.6299
2.37878
-7.40304
-20.4237
-37.509
-59.4126
-85.8806
-113.983
-136.191
-141.076
-125.363
-99.1986
-74.4492
-55.5846
-41.7871
-31.4582
-23.6872
-18.0362
-13.7111
-10.3017
-7.69035
-5.72981
-4.24816
-3.11627
-2.24819
-1.58237
-1.07018
-0.67472
-0.368756
-0.131386
0.0515425
0.187412
0.274808
0.302098
0.245685
0.0807746
20.3949
19.4059
16.9843
13.0248
7.35123
-0.388642
-10.674
-24.0303
-40.8904
-61.2799
-84.1494
-106.452
-122.801
-126.965
-116.631
-96.7652
-75.4577
-57.5094
-43.6672
-33.0567
-24.8876
-18.6976
-14.0511
-10.5109
-7.81263
-5.77488
-4.23658
-3.06485
-2.16503
-1.47146
-0.93584
-0.520725
-0.199054
0.0472266
0.228807
0.349341
0.402136
0.371008
0.237209
0.00791601
53.5097
54.1414
55.7299
58.2674
61.7073
66.0308
71.1852
76.9827
83.0144
88.5558
92.5074
93.4832
90.2683
82.6529
71.9821
60.412
49.5284
39.9871
31.9356
25.3114
19.952
15.6812
12.3531
9.82971
7.89683
6.37234
5.15943
4.20607
3.47097
2.90304
2.46314
2.12294
1.85875
1.64953
1.47622
1.32035
1.1611
0.973822
0.729415
0.392695
52.5121
53.1108
54.6329
57.0811
60.4317
64.7028
69.8988
75.9138
82.4278
88.7661
93.7264
95.4666
92.085
83.2698
71.277
58.986
47.8259
38.2016
30.2073
23.7184
18.4853
14.306
11.0962
8.77281
7.03378
5.66222
4.56838
3.69996
3.02859
2.50144
2.08444
1.7559
1.49748
1.29126
1.12526
0.9872
0.859303
0.720595
0.542349
0.29273
50.5556
51.087
52.4663
54.7142
57.8484
61.953
67.1407
73.4763
80.86
88.8156
96.0446
99.6778
95.5989
83.4559
68.6504
55.1799
43.5166
33.6583
25.6812
19.3243
14.177
10.1702
7.736
6.04617
4.61181
3.43293
2.54814
1.8986
1.42225
1.0817
0.841141
0.672616
0.559981
0.490679
0.455823
0.453448
0.47916
0.519666
0.53703
0.417855
47.7229
48.1492
49.2908
51.1909
53.9075
57.6009
62.5193
68.9752
77.2834
87.6017
98.3136
106.056
100.347
81.2131
63.0586
49.04
37.0545
27.4627
20.0993
14.0848
7.92443
1.77261
1.98952
2.46176
1.90276
1.03727
0.27194
-0.320864
-0.787709
-1.13498
-1.38749
-1.56652
-1.67987
-1.73482
-1.72792
-1.64422
-1.46775
-1.17588
-0.763633
-0.301457
44.1525
44.4312
45.2237
46.5873
48.5979
51.463
55.5099
61.2315
69.2587
88.6601
108.52
128.253
123.052
83.318
59.8215
45.0003
28.9653
17.7005
10.4569
5.43065
0.28307
-13.675
-11.0735
-8.169
-6.89944
-6.24636
-5.8087
-5.49715
-5.29166
-5.12297
-4.98287
-4.86457
-4.75224
-4.63223
-4.47174
-4.22466
-3.83087
-3.19627
-2.23636
-1.0643
40.0446
40.134
40.4651
41.0848
42.0623
43.5588
45.862
49.4512
55.0866
76.0277
101.777
145.047
165.715
28.3349
23.648
5.27305
-4.91076
-9.19364
-12.1132
-14.3994
-20.6531
-12.9233
-14.7525
-17.0796
-17.8702
-17.9252
-17.7076
-17.3743
-16.9627
-16.5312
-16.0798
-15.5916
-15.0993
-14.6042
-14.0483
-13.3749
-12.477
-11.128
-8.90666
-5.14494
35.6625
35.5311
35.3151
35.0304
34.687
34.3187
33.9819
33.7525
33.6755
47.3227
58.5333
128.2
167.5
-712.35
-133.748
-90.4263
-63.4966
-57.4387
-53.4902
-51.1849
-68.9694
-40.1539
-38.0819
-36.063
-34.1316
-32.2209
-30.5073
-29.0265
-27.729
-26.5813
-25.5428
-24.5867
-23.6935
-22.8075
-21.8937
-20.8862
-19.6666
-17.9506
-15.1173
-9.59166
31.3183
30.956
30.162
28.9094
27.1365
24.7135
21.3993
16.7408
9.82948
8.54646
-12.4511
-79.5461
-303.359
-258.927
-110.565
-60.9793
-37.8079
-27.1238
-21.4673
-17.0769
-9.04914
5.9315
2.45395
-1.47491
-3.18649
-4.02466
-4.5818
-4.96919
-5.21957
-5.37108
-5.45221
-5.48577
-5.46837
-5.37844
-5.20198
-4.9163
-4.45469
-3.69159
-2.46408
-0.811256
27.3319
26.7633
25.429
23.2755
20.1881
15.9214
10.0519
1.84619
-10.0616
-28.4588
-51.5114
-104.939
-175.534
-189.059
-132.002
-83.5623
-55.1234
-37.8265
-27.0934
-19.4785
-9.65325
-1.00136
-2.31752
-3.93009
-4.02536
-3.61237
-3.19024
-2.81636
-2.48277
-2.19459
-1.95305
-1.7492
-1.57584
-1.42063
-1.25328
-1.05231
-0.79242
-0.439642
-0.00117881
0.344549
24.0263
23.2853
21.5087
18.6263
14.5044
8.85927
1.2449
-9.00849
-22.8712
-41.5899
-65.788
-93.452
-117.136
-122.313
-105.051
-79.6939
-58.0713
-42.4987
-31.357
-22.8567
-15.7019
-10.9627
-8.39176
-6.52981
-4.83292
-3.43224
-2.3815
-1.60319
-1.01725
-0.573457
-0.236703
0.021625
0.220342
0.378749
0.516864
0.643959
0.762369
0.860411
0.882654
0.653551
21.6614
20.8033
18.7193
15.3363
10.5271
4.01803
-4.58055
-15.738
-29.9253
-47.3997
-67.6394
-88.4736
-104.449
-108.463
-98.2635
-80.0704
-61.8527
-47.138
-35.887
-27.1376
-20.1899
-14.8483
-10.7926
-7.82222
-5.59411
-3.89291
-2.59811
-1.61151
-0.854615
-0.271748
0.176138
0.518641
0.77787
0.970807
1.10902
1.19723
1.22901
1.18111
1.00018
0.573502
20.4278
19.5087
17.265
13.6249
8.47135
1.54902
-7.47866
-18.9464
-33.0629
-49.6613
-67.7563
-84.9961
-97.433
-100.809
-93.6206
-79.164
-63.0239
-48.855
-37.5297
-28.6026
-21.537
-16.0158
-11.8036
-8.64569
-6.2447
-4.38316
-2.938
-1.82262
-0.964088
-0.30387
0.202085
0.586975
0.875868
1.08602
1.22725
1.30225
1.3013
1.20037
0.953773
0.483238
51.5792
52.0726
53.3219
55.3051
57.9499
61.2008
64.9634
69.032
73.0336
76.3851
78.2944
77.8704
74.4375
68.0224
59.5875
50.553
41.9825
34.3594
27.826
22.3801
17.9409
14.4008
11.6484
9.54275
7.89635
6.56833
5.49228
4.63121
3.95048
3.41281
2.9859
2.6444
2.3671
2.13478
1.92964
1.73334
1.52283
1.27028
0.941522
0.496412
50.6275
51.089
52.2726
54.165
56.7058
59.8646
63.5802
67.6917
71.8677
75.5348
77.823
77.6196
73.9707
66.9352
57.9459
48.727
40.2041
32.6842
26.2946
21.0317
16.783
13.4344
10.9045
9.00889
7.51502
6.29501
5.30117
4.49769
3.84945
3.32485
2.89749
2.54722
2.2576
2.01316
1.79942
1.60227
1.40153
1.16943
0.867198
0.447589
48.7646
49.1621
50.2069
51.9006
54.2099
57.1433
60.7018
64.8132
69.2432
73.4657
76.4771
76.6644
72.2712
63.5782
53.5023
44.244
36.0375
28.7787
22.6538
17.6857
13.7373
10.7853
8.8765
7.39903
6.05206
4.89584
3.98899
3.29908
2.7708
2.3636
2.05066
1.81066
1.62734
1.48754
1.38014
1.29578
1.21976
1.12453
0.953963
0.588395
46.076
46.3764
47.2008
48.5628
50.4638
52.9519
56.1008
59.9545
64.4433
69.1975
73.1644
73.9631
68.0739