/*--------------------------------*- C++ -*----------------------------------*\
| =========                 |                                                 |
| \\      /  F ield         | OpenFOAM: The Open Source CFD Toolbox           |
|  \\    /   O peration     | Version:  2306                                  |
|   \\  /    A nd           | Website:  www.openfoam.com                      |
|    \\/     M anipulation  |                                                 |
\*---------------------------------------------------------------------------*/
FoamFile
{
    version     2.0;
    format      ascii;
    arch        "LSB;label=32;scalar=64";
    class       surfaceScalarField;
    location    "1.1";
    object      phi;
}
// * * * * * * * * * * * * * * * * * * * * * * * * * * * * * * * * * * * * * //

dimensions      [0 3 -1 0 0 0 0];

oriented        oriented;

internalField   nonuniform List<scalar> 
338621
(
24.9949
0.00255644
0.00117535
24.9871
0.00525238
0.00250257
24.9747
0.00821892
0.00405487
24.9573
0.0113207
0.00595953
24.934
0.0146694
0.00851573
24.9011
0.0206784
0.0118782
24.8545
0.0301335
0.0161566
24.7918
0.0406553
0.0216559
24.7304
0.0323384
0.028608
24.6879
0.00498836
0.0369251
24.6603
-0.0195414
0.0464559
24.5871
0.015853
0.0567243
24.616
-0.0969831
0.0674189
24.7462
-0.208485
0.0775738
24.7874
-0.128349
0.0865761
24.8189
-0.126019
0.0940445
24.8468
-0.128242
0.099946
24.8693
-0.127438
0.10465
24.8883
-0.127348
0.108168
24.9147
-0.137255
0.110782
24.9446
-0.142343
0.112468
24.9675
-0.13662
0.113646
24.9853
-0.132275
0.114456
25.0001
-0.12959
0.114849
25.0126
-0.12764
0.115083
25.0232
-0.125874
0.115273
25.0325
-0.124664
0.115419
25.0404
-0.123477
0.115557
25.0471
-0.122481
0.115804
25.0529
-0.121935
0.116133
25.0579
-0.121576
0.116509
25.0625
-0.121399
0.116877
25.0665
-0.121308
0.117309
25.07
-0.121279
0.117743
25.0732
-0.121308
0.118097
25.0765
-0.12168
0.118364
25.0799
-0.121878
0.11847
25.0835
-0.122081
0.118471
25.0876
-0.122335
0.118306
-0.122911
0.117714
24.9949
0.00508452
0.00115358
24.987
0.010623
0.00242568
24.9743
0.0169375
0.0039619
24.9567
0.022861
0.00584906
24.9333
0.0295209
0.00838149
24.9037
0.0383927
0.0116368
24.8681
0.0494797
0.0159643
24.8226
0.0642373
0.0215533
24.7585
0.067353
0.0286868
24.6845
0.0411379
0.0374199
24.6424
-0.0257233
0.0477558
24.6299
-0.0309437
0.0588091
24.6687
-0.207449
0.071061
24.7525
-0.375139
0.0824186
24.832
-0.300421
0.0920878
24.8994
-0.29359
0.0998746
24.9506
-0.285721
0.105943
24.992
-0.279628
0.110658
25.0365
-0.286083
0.114192
25.0702
-0.287678
0.116669
25.0905
-0.281077
0.118405
25.1052
-0.270829
0.119549
25.1154
-0.262863
0.120379
25.1235
-0.258547
0.120811
25.1298
-0.254927
0.121054
25.1347
-0.25204
0.121208
25.1381
-0.249437
0.121411
25.1409
-0.247926
0.121655
25.1433
-0.246914
0.12199
25.145
-0.246042
0.122405
25.1463
-0.245736
0.122865
25.147
-0.245428
0.123336
25.1477
-0.245801
0.1238
25.1482
-0.24602
0.124206
25.1487
-0.246311
0.124506
25.1493
-0.246914
0.12471
25.15
-0.24732
0.1247
25.1511
-0.24777
0.12457
25.1531
-0.248496
0.124215
-0.248655
0.123484
24.9952
0.00725191
0.0011017
24.9874
0.0160408
0.00231799
24.9754
0.0251871
0.00375455
24.9572
0.0352279
0.0056322
24.9328
0.045745
0.00808028
24.9016
0.0581344
0.0112933
24.8617
0.0734202
0.015666
24.8127
0.0915237
0.0213884
24.7441
0.10669
0.0289407
24.6466
0.0997301
0.0386253
24.5708
0.00565799
0.0505106
-0.00580111
0.00509602
-0.00574299
24.6684
-0.0384257
0.0645044
-0.0581201
-0.0384776
-0.0582984
24.561
-0.0106783
0.0778101
-0.094857
0.0211848
-0.0938153
24.7332
-0.181587
0.0907018
-0.123239
-0.211856
-0.121554
24.8254
-0.128277
0.100697
-0.120925
-0.126064
-0.118289
24.8848
-0.117624
0.108431
-0.115859
-0.114789
-0.113403
24.9377
-0.114283
0.114459
-0.114756
-0.112056
-0.112014
25.0027
-0.117443
0.119162
-0.116632
-0.115194
-0.1145
25.0452
-0.11444
0.122665
-0.113206
-0.112314
-0.111208
25.0706
-0.111057
0.125023
-0.1101
-0.108942
-0.107976
25.0891
-0.426234
0.126747
25.1037
-0.413231
0.127846
25.113
-0.400701
0.128541
25.1201
-0.394639
0.128964
25.1258
-0.389908
0.129293
25.1299
-0.385748
0.129577
25.1326
-0.382046
0.129892
25.1348
-0.38034
0.130298
25.1357
-0.378679
0.130809
25.1367
-0.378392
0.131406
25.1369
-0.378043
0.132031
25.1371
-0.378221
0.13262
25.1368
-0.378545
0.133054
25.1365
-0.379121
0.133413
25.1358
-0.379134
0.133476
25.1352
-0.379565
0.133331
25.1349
-0.379922
0.132853
25.135
-0.380022
0.132143
25.1354
-0.380014
0.131148
-0.379845
0.129819
24.9955
0.0096583
0.00102232
24.9887
0.0206695
0.00215353
24.9769
0.0335037
0.00346676
24.9599
0.0468124
0.00525333
24.9353
0.0626809
0.0075452
24.9009
0.0817288
0.0106421
24.8555
0.103759
0.0148993
24.7976
0.128596
0.0206452
24.7312
0.144368
0.0285066
6.14184
0.0372576
0.0391303
0.0543829
0.0379148
0.0536796
6.16389
6.1409
6.16173
6.1243
0.0174535
0.00572909
-6.11131
6.09925
-0.0339579
0.00758221
-6.10325
6.12476
-0.0417065
0.0095175
-6.11702
6.14387
-0.219965
0.0115269
-6.16255
6.1767
-0.155462
0.0130352
-6.18987
6.2004
-0.142208
0.0140449
-6.21159
6.22574
-0.143325
0.0148929
-6.23759
6.24468
-0.140128
0.0156068
-6.25042
6.25553
-0.135691
0.0161439
-6.2599
6.26383
-0.131531
0.016549
25.0979
-0.14577
0.137734
-0.146691
-0.144112
-0.146029
-6.26736
-6.27186
-6.26785
-6.27209
25.1059
-0.560763
0.139542
25.11
-0.544218
0.139442
25.1136
-0.537235
0.138971
25.1149
-0.530045
0.138874
25.1142
-0.524203
0.139127
25.113
-0.520528
0.139687
25.1105
-0.518332
0.140529
25.107
-0.516774
0.141575
25.1027
-0.51681
0.142706
25.098
-0.517102
0.143774
25.0927
-0.517545
0.144643
25.0868
-0.517803
0.14515
25.0807
-0.518441
0.145359
25.0747
-0.518085
0.14501
25.0684
-0.517515
0.144218
25.0623
-0.51671
0.142874
25.0565
-0.515286
0.14106
25.0521
-0.514405
0.138877
-0.512217
0.136403
24.9972
0.0103375
0.000914558
24.9912
0.0246936
0.0019261
24.9814
0.0401762
0.00309148
24.9659
0.0575391
0.00468762
24.9431
0.0787296
0.00673314
24.9097
0.105466
0.00950996
24.8599
0.140098
0.0133266
24.7859
0.183786
0.0186648
6.17146
0.23329
0.0260254
6.16419
6.17106
6.16414
6.15543
0.0493688
0.00391234
6.13013
0.00554017
-6.15797
0.0200707
0.0119301
0.0116601
0.0203399
-0.0417048
-6.07748
6.0434
0.00759651
-0.00222285
0.00417406
0.00366363
-0.0019258
0.0228042
-6.04301
6.06134
0.00999026
0.0291915
-0.0401086
-0.0403738
-0.0190342
0.0420414
-6.11371
6.13895
0.0127743
-0.0518343
-0.0665935
-0.104506
-0.0523063
0.237269
-6.17134
6.1832
0.0143457
-0.0503637
-0.0544008
-0.0536107
-0.0508874
0.183079
-6.1946
6.2077
0.0151693
-0.0506669
-0.050041
-0.0497884
-0.0508758
0.173108
-6.22096
6.23252
0.0158892
-0.049097
-0.049066
-0.0488781
-0.0492781
0.16888
-6.24197
6.24909
0.0165708
-0.0467603
-0.0466705
-0.0464897
-0.0469414
0.16319
-6.25539
6.25992
0.0171735
-0.0445459
-0.0447451
-0.0445771
-0.0447246
0.156905
-6.26399
6.26613
0.0176772
-0.0426106
-0.0430384
-0.0428784
-0.0427817
0.151499
-6.26924
6.27093
-0.165719
0.0182721
25.0409
-0.678071
0.146544
-6.27063
-6.26387
-6.27145
-6.26417
25.0177
-0.666282
0.145244
24.9928
-0.654467
0.142225
24.9671
-0.643893
0.139508
24.9419
-0.636478
0.13747
24.9169
-0.631647
0.136164
24.8919
-0.628903
0.135529
24.8678
-0.628044
0.135402
24.8438
-0.628357
0.135521
24.8206
-0.629493
0.135612
24.7984
-0.630788
0.135414
24.7775
-0.631562
0.134698
24.7573
-0.6317
0.133438
24.7387
-0.630965
0.131463
24.7215
-0.629086
0.128816
24.7057
-0.626416
0.125506
24.6918
-0.623066
0.121603
24.6799
-0.619709
0.117281
-0.61705
0.112838
24.9999
0.00898325
0.00077899
24.9965
0.0263865
0.00163409
24.989
0.045077
0.0026266
24.9772
0.0653611
0.0039033
24.9596
0.0906863
0.00559565
24.9325
0.124615
0.00783246
24.8895
0.172237
0.0108415
24.8172
0.240912
0.0150683
6.17092
0.347107
0.0207829
6.17045
6.17092
6.17028
-0.0653312
6.14533
0.0877875
0.00312616
-0.0196752
-1.52767
1.52253
0.0242227
0.000591608
-0.0193834
-1.50436
1.49226
0.0307345
0.000752831
-1.46884
0.0522216
1.47878
-0.0633184
0.00116868
-1.53023
0.0845181
1.53886
-0.0946034
0.00146874
-1.53706
0.0614807
-0.0657337
0.00217486
1.53914
-1.54818
0.0593394
-0.0639793
0.00220938
1.55062
0.0568817
-1.55603
1.55741
-0.0603503
0.00208923
0.0529949
-1.56021
1.56074
-0.055469
0.00194877
0.0502896
-1.56136
1.56145
-0.0522084
0.00183449
0.0478783
-1.56083
1.56044
-0.0492639
0.00177184
-1.55379
0.181842
6.15323
-0.175646
0.0192135
-1.53846
-1.55265
-1.53374
23.8012
-0.777916
0.068749
-6.09338
-5.79592
-6.09247
-5.78838
23.8236
-0.754314
0.0656851
23.844
-0.73751
0.0626104
23.8637
-0.723703
0.0601269
23.8818
-0.713098
0.0584958
23.8981
-0.705429
0.0575164
23.9127
-0.700387
0.05691
23.9257
-0.697454
0.0564404
23.9374
-0.696037
0.0559449
23.948
-0.695438
0.055335
23.9576
-0.69498
0.0545743
23.9667
-0.694251
0.0536328
23.9751
-0.692728
0.0525786
23.983
-0.690165
0.0513544
23.9906
-0.686702
0.0499448
23.9981
-0.682177
0.0482973
24.0056
-0.676812
0.0463039
24.0128
-0.67076
0.0437911
-0.663551
0.0404826
25.003
0.00506554
0.000638165
25.0036
0.0244744
0.00131145
25.0008
0.045807
0.00208693
24.9952
0.0679951
0.0030025
24.9864
0.0952438
0.00418
24.9729
0.132431
0.00571169
24.9531
0.184335
0.00761602
24.9219
0.2621
0.0100572
6.21322
0.38786
0.0129441
6.22123
6.2129
6.22084
-0.106145
6.19776
0.11974
0.00186339
-0.0393349
-1.54202
1.53586
0.0451786
0.000320585
-0.0820009
-1.50632
1.48773
0.100274
0.000315379
0.00444465
-0.0747194
0.0749136
-0.0046674
2.85761e-05
-0.021405
0.00045086
0.0209162
2.98576e-06
3.50091e-05
-0.210617
0.0112854
-0.0221562
-0.00060437
0.222092
-1.18453
0.0598254
-0.0784493
-0.000121078
1.20327
0.0526866
-1.24251
1.251
-0.0612928
0.000122067
0.0499586
-1.2781
1.28734
-0.0593833
0.0001864
0.0464712
-1.31193
1.31979
-0.0544204
9.2609e-05
0.0446081
-1.34071
1.3484
-0.0521489
-0.000153977
-1.39331
0.205932
5.84115
-0.221765
-0.0151774
-1.49656
-1.41915
-1.50113
24.1459
-0.687951
-0.115368
-5.88989
-6.17493
-5.88198
-6.17372
24.1643
-0.658264
-0.114431
24.1817
-0.642237
-0.112725
24.2003
-0.630493
-0.111775
24.2201
-0.621318
-0.111611
24.2414
-0.614893
-0.111828
24.264
-0.610867
-0.11213
24.2872
-0.608544
-0.112112
24.3102
-0.607433
-0.111545
24.332
-0.606992
-0.110255
24.352
-0.606769
-0.108205
24.3696
-0.606506
-0.10537
24.3847
-0.605876
-0.101956
24.3973
-0.604704
-0.0980529
24.4074
-0.602852
-0.0939531
24.4157
-0.600522
-0.0899336
24.4226
-0.597452
-0.0862829
24.4288
-0.593546
-0.0834598
-0.588431
-0.0823622
25.0048
1.65645e-05
0.000481458
25.0102
0.018177
0.000973473
25.0152
0.0393117
0.00149304
25.0192
0.0619093
0.00207093
25.0211
0.0906448
0.00268739
25.0262
0.124023
0.00340395
25.0382
0.168331
0.00407343
25.0638
0.23197
0.00450145
6.27423
0.332653
0.00432527
6.28201
6.27438
6.28416
-0.111863
6.28189
0.103752
0.000456263
-0.0446463
-1.57788
1.57956
0.0429431
2.39531e-05
-0.0841979
-1.59805
1.61306
-0.000186959
0.0693798
-0.0259376
-1.71345
1.75263
-0.00142793
0.0564148
-0.0210737
-0.0260363
-0.0211198
0.100856
-1.71261
1.68285
-0.00134427
-0.0697644
0.102159
-1.60949
-0.00180465
1.59913
-0.0900014
0.0783341
-1.58499
-0.00186829
1.58212
-0.0735938
0.0575195
-1.57748
1.57652
-0.054635
-0.00192367
0.0584316
-1.57464
1.57279
-0.0546182
-0.00196096
0.0528717
-1.57221
1.5715
-0.0501731
-0.00198771
0.0492298
-1.57037
1.56982
-0.0466701
-0.00200648
-1.56737
0.18357
6.26389
-0.162307
-0.0167644
-1.56689
-1.56712
-1.56701
25.0663
-0.550175
-0.13168
-6.2674
-6.26723
-6.26987
-6.26795
25.0682
-0.528332
-0.131831
25.0673
-0.51054
-0.130738
25.0659
-0.499532
-0.129624
25.065
-0.491694
-0.128751
25.0645
-0.486256
-0.128065
25.0639
-0.482622
-0.127649
25.0628
-0.480109
-0.127404
25.0618
-0.47908
-0.127302
25.0604
-0.478383
-0.127252
25.0587
-0.477822
-0.127221
25.057
-0.477818
-0.126984
25.0553
-0.477495
-0.126667
25.0534
-0.476648
-0.126125
25.052
-0.476017
-0.12549
25.0511
-0.474763
-0.12482
25.0508
-0.472951
-0.12421
25.0514
-0.470313
-0.123828
-0.467097
-0.123695
25.0058
-0.0050697
0.000279628
25.0143
0.00902233
0.000627024
25.0274
0.0253183
0.000917771
25.0388
0.0493797
0.00115414
25.0542
0.0740118
0.00129126
25.0777
0.0994175
0.00122902
25.1155
0.129861
0.000800315
25.1785
0.169544
-0.000457455
6.32047
0.231382
-0.00304945
6.31865
6.32473
6.31912
-0.0890329
6.33651
0.0737005
-0.00069442
-0.0333222
6.41298
0.0880459
-0.00165178
-0.034492
-0.0334028
-0.0339916
-6.36416
-0.0334628
6.5167
0.0759979
-0.00355206
-0.0262056
-0.0332554
-0.0260741
-6.47015
-0.00727757
-6.54737
6.51368
-0.0056028
-0.00650532
0.015146
-0.00753242
0.0454375
0.0455035
-6.5353
6.51357
-0.123147
-0.00960958
0.0392511
0.0361796
0.0335314
0.0549748
-6.44931
6.41201
-0.177031
-0.0116848
0.0554285
0.057349
0.0582674
0.0563936
-6.37229
6.34034
-0.175583
-0.0130167
0.0551538
0.0552861
0.0537247
0.0468272
-6.32229
6.31106
-0.158106
-0.0141007
0.0459378
0.0456188
0.0450509
0.0449914
-6.30227
6.29621
-0.157709
-0.0148985
0.0447849
0.044529
0.0443496
0.042084
-6.29155
6.28594
-0.145176
-0.0153911
0.0415892
0.0415592
0.0409317
0.0391657
-6.28146
6.27582
-0.133119
-0.0156814
0.038685
0.0386052
0.0379751
0.144723
-6.27412
6.27213
-0.126767
-0.0159646
25.0677
-0.409718
-0.130451
-6.26956
-6.26963
-6.26973
-6.26881
25.0606
-0.391616
-0.12966
25.0579
-0.379362
-0.128457
25.0565
-0.370704
-0.127479
25.0561
-0.364576
-0.126733
25.0561
-0.360017
-0.126156
25.0561
-0.356958
-0.125728
25.0563
-0.354919
-0.125412
25.0561
-0.353702
-0.125156
25.0557
-0.353066
-0.124903
25.0551
-0.352584
-0.124644
25.0544
-0.352814
-0.124294
25.0533
-0.352579
-0.123843
25.0529
-0.35285
-0.123385
25.0524
-0.352615
-0.122934
25.0521
-0.351925
-0.122522
25.0528
-0.351363
-0.122242
25.0549
-0.350235
-0.122184
-0.348977
-0.122388
25.0064
-0.0102489
0.00020696
25.0164
-0.00131652
0.000377915
25.0254
0.0158639
0.000461045
25.0421
0.0323057
0.000436035
25.0689
0.0471951
0.000158639
25.1024
0.0665355
-0.000489485
25.1499
0.0843318
-0.00175149
25.2162
0.107576
-0.00409749
25.325
0.131005
-0.00820493
25.4298
0.144333
-0.0149921
-0.061482
-0.0570484
-0.0585211
-0.0568024
25.5772
0.131617
-0.0253861
-0.060863
-0.0642751
-0.0613252
-0.0668091
25.7109
0.0540083
-0.0401528
-0.0421442
-0.0283581
-0.0451399
-0.0316775
25.5891
-0.156931
-0.0578028
0.0211623
0.124029
0.0199844
0.171464
25.4977
-0.238486
-0.0764311
0.0833432
0.116949
0.0988412
0.107473
25.43
-0.249937
-0.0919025
0.0831035
0.148657
0.0313806
0.146638
25.3445
-0.355295
-0.103656
0.135853
0.139049
0.133789
0.135976
25.26
-0.326288
-0.111663
0.130116
0.133962
0.127487
0.130995
25.1932
-0.336983
-0.116991
0.133481
0.130547
0.130078
0.126705
25.1495
-0.315817
-0.120333
0.123487
0.120319
0.119993
0.116009
25.1255
-0.296076
-0.122334
0.112716
0.112402
0.107889
0.10932
25.1064
-0.28045
-0.123472
0.107759
0.106941
0.104887
0.103395
25.0898
-0.269128
-0.123986
25.0803
-0.258401
-0.123779
25.0747
-0.250393
-0.123356
25.071
-0.244005
-0.122971
25.0683
-0.239323
-0.122527
25.0667
-0.23629
-0.12213
25.0649
-0.233415
-0.121806
25.0636
-0.232018
-0.121577
25.062
-0.230705
-0.121458
25.0607
-0.230325
-0.121439
25.0597
-0.230012
-0.121518
25.0582
-0.229615
-0.121684
25.0572
-0.229783
-0.121837
25.0559
-0.229446
-0.122112
25.055
-0.229278
-0.122408
25.055
-0.22917
-0.122763
25.0557
-0.228835
-0.1232
25.0566
-0.227451
-0.12375
-0.226216
-0.124404
25.0067
-0.0152352
0.000121105
25.01
-0.00476109
0.000199462
25.0179
0.00787792
0.000141907
25.0377
0.0126875
-4.75879e-05
25.0634
0.0222473
-0.000573766
25.0929
0.038825
-0.00160491
25.1409
0.0399604
-0.0033604
25.2021
0.0529564
-0.00624099
25.2811
0.0632984
-0.0108984
25.3765
0.0672203
-0.0179153
25.4829
0.0535674
-0.0278729
25.5627
0.0159837
-0.0412181
25.5402
-0.0770843
-0.0568765
25.5261
-0.151079
-0.072867
25.4037
-0.0401628
-0.0869029
25.3213
-0.174309
-0.0981865
25.2711
-0.169626
-0.106164
25.2094
-0.163366
-0.111799
25.1644
-0.155349
-0.115408
25.1326
-0.146615
-0.117639
25.1096
-0.13853
-0.118916
25.0921
-0.132187
-0.119415
25.08
-0.126796
-0.119455
25.0714
-0.122736
-0.119143
25.0656
-0.119489
-0.118709
25.0617
-0.117231
-0.118125
25.0583
-0.115338
-0.117595
25.0562
-0.114177
-0.117149
25.0546
-0.113644
-0.11674
25.0532
-0.112912
-0.116454
25.0521
-0.112913
-0.116266
25.0508
-0.112586
-0.116176
25.0502
-0.112847
-0.116132
25.0493
-0.112711
-0.116168
25.0491
-0.112967
-0.116283
25.049
-0.112722
-0.116439
25.0493
-0.112901
-0.116646
25.0502
-0.112739
-0.116927
25.0523
-0.112277
-0.117317
-0.112669
-0.117858
24.987
9.63249e-05
24.9822
0.00016235
24.9901
3.26696e-05
25.0031
-0.000170126
25.0263
-0.000833772
25.0674
-0.00196607
25.1115
-0.00386799
25.1718
-0.00694757
25.2474
-0.0117666
25.3339
-0.0187106
25.4163
-0.0282031
25.4735
-0.040451
25.4516
-0.0545111
25.3701
-0.0689258
25.4125
-0.0820119
25.3318
-0.0931282
25.2638
-0.1012
25.2074
-0.106767
25.1626
-0.110435
25.1288
-0.112713
25.1043
-0.114007
25.0866
-0.114535
25.0744
-0.114547
25.0658
-0.114179
25.06
-0.113721
25.056
-0.113168
25.0533
-0.11266
25.0514
-0.112299
25.0497
-0.111938
25.0485
-0.111745
25.0473
-0.111702
25.0465
-0.11173
25.0455
-0.111835
25.0448
-0.112046
25.0442
-0.112384
25.0442
-0.112753
25.0445
-0.113154
25.0454
-0.113605
25.0472
-0.114138
-0.114792
24.9953
0.0018363
0.00231597
24.9881
0.00464676
0.00483997
24.9769
0.00723136
0.00784238
24.9605
0.0103427
0.011604
24.9388
0.0131208
0.0164573
24.9094
0.0177448
0.0228328
24.8676
0.0258736
0.0311447
24.8105
0.0356524
0.0418272
24.7554
0.0269829
0.055213
24.72
-0.000977685
0.0716435
24.6961
-0.0219657
0.0904549
24.6346
0.00504159
0.111088
24.6636
-0.0958124
0.132237
24.7811
-0.194434
0.152567
24.813
-0.117487
0.170339
24.8362
-0.115625
0.184848
24.8588
-0.120014
0.19627
24.8777
-0.120204
0.205171
24.8945
-0.120987
0.21189
24.922
-0.133864
0.216799
24.9498
-0.135576
0.220146
24.9716
-0.130633
0.222438
24.9889
-0.126905
0.223968
25.0034
-0.124587
0.224956
25.0154
-0.122483
0.225586
25.0257
-0.121045
0.225997
25.0343
-0.119495
0.226294
25.0415
-0.118123
0.226549
25.0476
-0.117177
0.226852
25.0529
-0.116411
0.227251
25.0572
-0.115573
0.227736
25.0607
-0.114918
0.228307
25.0641
-0.114956
0.22892
25.0674
-0.115156
0.229619
25.0702
-0.115012
0.230259
25.0733
-0.115568
0.230889
25.0764
-0.115984
0.231284
25.0799
-0.11657
0.231561
25.0842
-0.117477
0.231474
-0.118268
0.230468
24.9954
0.00370812
0.0022622
24.9883
0.0092963
0.00473397
24.9765
0.0150452
0.00768504
24.9601
0.0207567
0.0114027
24.9381
0.026822
0.0162208
24.9104
0.03377
0.0225936
24.8774
0.0429543
0.03097
24.8352
0.0564851
0.0418969
24.773
0.0607184
0.0558934
24.6982
0.0364357
0.0733813
24.6563
-0.0278765
0.0940717
24.596
0.00549561
0.117159
24.6319
-0.203058
0.140859
24.7639
-0.408859
0.163369
24.8438
-0.288939
0.182346
24.9106
-0.281107
0.197492
24.96
-0.273617
0.209357
24.9999
-0.268327
0.218411
25.0452
-0.277484
0.225177
25.0777
-0.279794
0.229949
25.0971
-0.269769
0.233188
25.111
-0.260433
0.235393
25.1206
-0.25302
0.236936
25.1279
-0.249061
0.237958
25.1339
-0.246044
0.238624
25.1381
-0.24308
0.239076
25.141
-0.240418
0.239457
25.1435
-0.238869
0.23985
25.1452
-0.237156
0.240314
25.1461
-0.235751
0.240864
25.1468
-0.234919
0.241495
25.1475
-0.234422
0.242186
25.1474
-0.234022
0.24295
25.1472
-0.234445
0.24369
25.1475
-0.235199
0.244379
25.1474
-0.235764
0.244955
25.1479
-0.237127
0.245346
25.1492
-0.238744
0.245495
25.1506
-0.240033
0.245324
-0.241828
0.244195
24.9955
0.0055836
0.00215825
24.9886
0.013844
0.00452514
24.977
0.0227954
0.00736514
24.9601
0.0319263
0.0109658
24.9371
0.0418462
0.0156776
24.9071
0.0525212
0.0219878
24.8692
0.0653486
0.0304477
24.823
0.0814712
0.0417647
24.7578
0.0971287
0.0567597
24.6635
0.0922204
0.0761648
24.5874
0.00443618
0.100185
-0.00583286
0.00404081
-0.0051746
24.7231
-0.0389894
0.127731
-0.0590967
-0.0384691
-0.0577372
24.5823
0.0212766
0.155836
-0.0943915
0.0232299
-0.0911907
24.7443
-0.213553
0.182078
-0.122076
-0.20999
-0.117303
24.8329
-0.126494
0.202087
-0.118634
-0.12169
-0.112946
24.8905
-0.115457
0.217347
-0.114166
-0.110259
-0.108349
24.9429
-0.113105
0.229322
-0.113028
-0.107591
-0.107344
25.0078
-0.116179
0.238431
-0.115526
-0.110698
-0.109948
25.0502
-0.113496
0.245052
-0.112511
-0.108254
-0.107829
25.0766
-0.110623
0.249464
-0.109214
-0.10615
-0.104385
25.0953
-0.413801
0.252115
25.1084
-0.399486
0.25391
25.1171
-0.388384
0.255185
25.1237
-0.383334
0.25673
25.1287
-0.379457
0.257699
25.1323
-0.37574
0.258635
25.1351
-0.372244
0.25893
25.1366
-0.369502
0.259451
25.1374
-0.367155
0.260005
25.1384
-0.365964
0.260623
25.1381
-0.363941
0.261289
25.1378
-0.363415
0.261982
25.1377
-0.36331
0.262418
25.1367
-0.363349
0.263288
25.1355
-0.364262
0.263769
25.1346
-0.36558
0.264059
25.1337
-0.367487
0.264073
25.1331
-0.369727
0.26374
25.1334
-0.372227
0.26303
-0.374599
0.261366
24.9965
0.00707586
0.00199956
24.9899
0.0182408
0.00419815
24.9786
0.0305188
0.00684499
24.962
0.0432414
0.0102205
24.9389
0.0575249
0.0146842
24.9058
0.0750508
0.0207413
24.8612
0.0952446
0.0290731
24.8034
0.118676
0.0405465
24.7355
0.136578
0.0563972
6.14306
0.0369777
0.0781524
0.0517082
0.0366454
0.0510614
6.16285
6.14337
6.16241
-0.0113644
6.12599
0.0155978
0.0172258
-0.0151536
-6.1143
6.10269
-0.0351712
0.0229287
-0.0191211
-6.10698
6.09967
0.0187839
0.0289382
-0.0231129
-6.11524
6.14713
-0.257242
0.0349224
-0.0261071
-6.16518
6.17876
-0.15335
0.0393653
-0.0281966
-6.19161
6.20209
-0.140204
0.0424548
-0.0298701
-6.21272
6.22688
-0.142357
0.0449779
-0.0312433
-6.23949
6.24667
-0.1391
0.0470338
-0.0322923
-6.25244
6.25765
-0.134908
0.0485417
-0.0330372
-6.2614
6.26538
-0.131153
0.0496117
25.1015
-0.143914
0.277232
-0.144052
-0.142754
-0.140846
-6.26917
-6.27288
-6.26867
-6.27226
25.1079
-0.544567
0.278249
25.1116
-0.531162
0.278644
25.1147
-0.527686
0.280249
25.1161
-0.523527
0.281486
25.1158
-0.519241
0.282948
25.1153
-0.515832
0.283864
25.1137
-0.512437
0.285029
25.1112
-0.509256
0.28619
25.1075
-0.506874
0.287312
25.1034
-0.504398
0.288338
25.0983
-0.502917
0.289208
25.0923
-0.501681
0.289583
25.0856
-0.501556
0.290194
25.0783
-0.502054
0.2901
25.0708
-0.50349
0.289675
25.0626
-0.505047
0.288632
25.0546
-0.507703
0.286998
25.048
-0.51143
0.284697
-0.51436
0.281198
24.9982
0.00691042
0.00178382
24.9928
0.0216714
0.00374764
24.983
0.0371316
0.0061055
24.9681
0.0535138
0.00911182
24.9458
0.0732042
0.0131054
24.9136
0.098185
0.0183133
24.8649
0.130697
0.0261897
24.7924
0.172485
0.0369039
6.17334
0.221825
0.0522754
6.16651
6.17388
6.16684
-0.00775267
6.15834
0.0479124
0.0117943
-0.0110419
6.13278
0.0168201
-6.16103
0.0191235
0.01096
0.0194257
0.0106558
-0.0376887
-0.0152413
-6.08074
6.04823
0.023336
-0.00307133
0.00255271
-0.00304702
0.00244059
0.0256342
-0.0201648
-6.04728
6.06137
0.03087
0.0517945
-0.0410612
0.05134
-0.0408453
-0.0457826
-0.0253547
-6.10198
6.14295
0.0383747
-0.0508817
-0.129253
-0.0515935
-0.128754
0.306719
-0.0281734
-6.17308
6.18348
0.0422756
-0.0491503
-0.0530369
-0.0498791
-0.0523427
0.179998
-0.0297432
-6.19578
6.20905
0.0445342
-0.0498989
-0.0496639
-0.0505663
-0.0490306
0.171125
-0.0312016
-6.2223
6.23406
0.0466331
-0.0484036
-0.0489742
-0.049193
-0.0482424
0.167712
-0.0326394
-6.24371
6.25099
0.0484709
-0.0456458
-0.0466094
-0.0468353
-0.0457087
0.161808
-0.0338936
-6.25749
6.26178
0.0499084
-0.0433515
-0.0445315
-0.0444007
-0.0435138
0.15558
-0.0348785
-6.2658
6.26784
0.0509629
-0.0414314
-0.0426217
-0.0422502
-0.0415709
0.149796
-6.27024
-0.0357966
6.27206
-0.161701
0.0517799
25.0463
-0.643566
0.279928
-6.27334
-6.26729
-6.27334
-6.2666
25.0201
-0.638006
0.278348
24.9919
-0.634052
0.276734
24.964
-0.630423
0.274372
24.938
-0.627959
0.272181
24.9134
-0.625611
0.270518
24.8907
-0.622868
0.26868
24.8694
-0.6199
0.267365
24.8486
-0.616752
0.266191
24.8286
-0.613742
0.26499
24.8089
-0.61116
0.263371
24.7891
-0.60917
0.26195
24.769
-0.60785
0.259789
24.749
-0.607709
0.257123
24.7289
-0.608386
0.253869
24.7095
-0.610064
0.249891
24.6911
-0.612781
0.245083
24.6745
-0.616945
0.239393
-0.623366
0.232526
25.0019
0.00352216
0.00150667
24.9995
0.0224739
0.00317181
24.9916
0.0423639
0.00514367
24.9794
0.0618672
0.0076263
24.9618
0.0853765
0.0108904
24.9358
0.117063
0.0148147
24.8935
0.162147
0.0214521
24.8225
0.228336
0.0300362
6.17281
0.332606
0.0425826
6.1718
6.17321
6.17191
-0.00615243
-0.0627166
6.14757
0.0845347
0.00957052
-0.00201488
-0.0186668
-1.52824
1.52306
0.0231895
0.00267052
-0.00297844
-0.0174159
-1.505
1.49257
0.0290553
0.00380337
-0.00440708
-1.47018
0.0531235
1.48024
-0.0642965
0.00558682
-0.00629354
-1.52995
0.153659
1.54155
-0.166716
0.00781332
-0.00726266
-1.53828
0.0588312
-0.0616887
1.54007
0.00836365
-1.54881
-0.00711674
0.0580108
-0.0620647
0.00856868
1.55142
-0.00720404
0.0564214
-1.55675
1.55815
-0.0598434
0.00924281
-0.00791975
0.0528343
-1.56093
1.56142
-0.0557481
0.010351
-0.00892607
0.0498955
-1.56184
1.56181
-0.0523723
0.0114332
-0.00981092
0.0470548
-1.56087
1.56038
-0.0488853
0.0121386
-1.55514
-0.0396101
0.170043
6.17305
-0.151344
0.0438799
-1.53764
-1.55765
-1.54559
23.867
-0.722113
0.14446
-6.11278
-5.81198
-6.11079
-5.82856
23.8607
-0.707696
0.141689
23.8562
-0.704912
0.137996
23.8551
-0.702425
0.133148
23.8576
-0.700431
0.128538
23.8629
-0.698236
0.124777
23.8713
-0.695516
0.121157
23.8818
-0.692236
0.118286
23.8938
-0.688588
0.115789
23.9067
-0.684777
0.113507
23.9201
-0.681082
0.111063
23.9334
-0.677874
0.109038
23.9468
-0.675286
0.106595
23.9601
-0.673482
0.103907
23.9733
-0.672499
0.100833
23.9866
-0.672279
0.097241
23.9999
-0.672701
0.0929009
24.013
-0.673627
0.0873921
-0.674957
0.0798044
25.0089
0.00226151
0.00123389
25.0096
0.0205556
0.0025283
25.0061
0.0438492
0.00402992
24.9992
0.0658503
0.0058598
24.9891
0.0914434
0.00817097
24.9754
0.12581
0.0106707
24.9556
0.174364
0.0150965
24.9248
0.248974
0.0201941
6.21355
0.373177
0.0271024
6.2214
6.21361
6.22151
-0.00370552
-0.10241
6.19801
0.115855
0.00580888
-0.00113263
-0.0382399
-1.542
1.53583
0.0440442
0.00150676
-0.00146127
-0.0805276
-1.5058
1.48728
0.0985877
0.00194316
-0.000145361
0.00461244
-0.0748386
0.0750994
-0.00489661
0.000168916
-0.00466901
-0.165023
0.00371576
-0.0138966
0.00188742
0.177983
-1.12155
0.00121569
0.0459798
-0.0721663
-0.0112903
1.15781
0.00810689
0.0495912
-1.23755
1.25483
-0.0599618
-0.0150105
0.0110214
0.0570619
-1.29811
1.31036
-0.064386
-0.0159387
0.0118854
0.0571771
-1.33785
1.34521
-0.0611282
-0.0152964
0.0116026
0.0550513
-1.36173
1.36752
-0.0585882
-0.0138505
-1.39474
0.0378565
0.173656
5.7419
-0.210959
-0.038462
-1.49034
-1.33695
-1.48196
24.0428
-0.674129
-0.223937
-5.8132
-6.16356
-5.83774
-6.16772
24.0897
-0.647397
-0.221622
24.1291
-0.638269
-0.218776
24.1627
-0.631489
-0.216399
24.1904
-0.625583
-0.214089
24.2128
-0.620786
-0.211666
24.2312
-0.617025
-0.209058
24.247
-0.613947
-0.206183
24.2613
-0.611471
-0.202978
24.2752
-0.609497
-0.199405
24.2895
-0.608172
-0.195503
24.3052
-0.607583
-0.191306
24.3225
-0.607568
-0.186994
24.3413
-0.607728
-0.182639
24.3614
-0.60811
-0.178438
24.3824
-0.608553
-0.174619
24.4038
-0.608858
-0.171558
24.4248
-0.608352
-0.169691
-0.605565
-0.169617
25.0083
-0.00286125
0.00091226
25.0153
0.0126252
0.00184814
25.022
0.0358545
0.00285551
25.0258
0.0601875
0.00397768
25.0249
0.0898125
0.00524087
25.0291
0.118822
0.00638447
25.0406
0.159021
0.00805723
25.068
0.216974
0.00918805
6.27535
0.305859
0.00948287
6.28762
6.27661
6.29078
-0.000981002
-0.107596
6.28257
0.0998159
0.00154177
-0.000124875
-0.0435363
-1.57755
1.57918
0.0418683
0.000161122
0.000441553
-0.0806665
-1.59941
1.61584
0.0642219
-0.000454252
0.00288612
-0.0268212
-1.71143
1.74964
0.0597074
-0.00108919
-0.022337
-0.0278268
-0.0227852
0.00479401
0.110303
-1.70984
1.67882
-0.0786924
-0.00545349
0.104713
-1.60895
0.00559002
1.59799
-0.0928107
-0.00657322
0.00606516
0.0744762
-1.58318
-0.00744876
1.58108
-0.0709968
0.00664809
0.0550899
-1.57789
1.57641
-0.051951
-0.00830227
0.00717925
0.0572804
-1.57555
1.5741
-0.0540532
-0.00895782
0.00761068
0.0516012
-1.57322
1.57255
-0.0491199
-0.00942343
0.00785561
0.0479406
-1.56971
1.56999
-0.0464241
-0.0096594
-1.57001
0.0325856
0.178995
6.27446
-0.158753
-0.0459469
-1.5701
-1.5703
-1.57093
25.0884
-0.529386
-0.259799
-6.27701
-6.26948
-6.2833
-6.2753
25.0888
-0.519484
-0.260137
25.086
-0.506658
-0.259626
25.0827
-0.498404
-0.25942
25.0791
-0.491473
-0.259281
25.076
-0.486614
-0.259091
25.0729
-0.482662
-0.258887
25.0699
-0.4797
-0.258685
25.0672
-0.477576
-0.258473
25.0646
-0.47593
-0.258236
25.0623
-0.475108
-0.257977
25.0607
-0.475068
-0.257932
25.0592
-0.475333
-0.257421
25.0578
-0.475231
-0.257181
25.0572
-0.475944
-0.257034
25.057
-0.476037
-0.257152
25.0573
-0.475695
-0.257702
25.0582
-0.47421
-0.25886
-0.471918
-0.260538
25.007
-0.00751894
0.000608017
25.0171
0.00193606
0.00118856
25.0313
0.0209309
0.00173202
25.0397
0.0508958
0.0021862
25.0572
0.0713202
0.0024586
25.0805
0.0947317
0.00236454
25.1179
0.121168
0.00154547
25.1826
0.152907
-0.000684386
6.32924
0.19308
-0.00557391
6.31849
6.33345
6.31715
-0.0847701
0.00128279
6.3474
0.0673354
-0.00197758
-0.0325426
0.00331114
6.42065
0.0856854
-0.00476395
-0.0304714
-0.0326318
-0.0294148
-6.37982
-0.0289013
0.00712349
6.49076
0.0796276
-0.0102105
-0.0284216
-0.02777
-0.03053
-6.45174
-0.00922554
0.0127135
-6.53868
6.49776
-0.0587364
-0.0188311
0.0629053
-0.0103876
0.0623002
0.0350347
0.0195372
-6.49061
6.47259
-0.144077
-0.0287448
0.0514094
0.0342131
0.0504865
0.0580358
-6.44959
0.0245686
6.40669
-0.182689
-0.0361947
0.0571168
0.0614853
0.0605487
0.0559894
0.027586
-6.36714
6.33978
-0.177577
-0.0408534
0.0541255
0.0549557
0.0531627
0.0460692
0.0297268
-6.32608
6.31893
-0.160208
-0.0440883
0.0455242
0.0452505
0.0448517
0.0450468
0.0311931
-6.31437
6.30609
-0.156564
-0.0462549
0.04559
0.0443267
0.0448798
0.0443356
0.0319998
-6.29702
6.28777
-0.146371
-0.0475349
0.0418407
0.0437059
0.0412175
0.0393216
0.0324217
-6.28014
6.27222
-0.12918
-0.0482119
0.0363289
0.0397482
0.037456
0.139694
-6.27069
0.0328712
6.27106
-0.124337
-0.0486132
25.0703
-0.390218
-0.265209
-6.26956
-6.26766
-6.27016
-6.26741
25.0649
-0.379941
-0.263884
25.0625
-0.370296
-0.262376
25.0607
-0.362811
-0.261287
25.06
-0.357351
-0.260191
25.0593
-0.352989
-0.259043
25.0589
-0.350182
-0.257907
25.0589
-0.348253
-0.256831
25.0586
-0.346555
-0.255846
25.0587
-0.345944
-0.254971
25.0584
-0.345287
-0.25419
25.0583
-0.34544
-0.253803
25.0575