/*--------------------------------*- C++ -*----------------------------------*\
| =========                 |                                                 |
| \\      /  F ield         | OpenFOAM: The Open Source CFD Toolbox           |
|  \\    /   O peration     | Version:  2306                                  |
|   \\  /    A nd           | Website:  www.openfoam.com                      |
|    \\/     M anipulation  |                                                 |
\*---------------------------------------------------------------------------*/
FoamFile
{
    version     2.0;
    format      ascii;
    arch        "LSB;label=32;scalar=64";
    class       volVectorField;
    location    "1.1";
    object      U;
}
// * * * * * * * * * * * * * * * * * * * * * * * * * * * * * * * * * * * * * //

dimensions      [0 1 -1 0 0 0 0];

internalField   nonuniform List<vector> 
111542
(
(99.9933 0.00584382 0.00235777)
(99.9709 0.0118586 0.0050451)
(99.9292 0.0179925 0.00812644)
(99.8671 0.0243787 0.012024)
(99.7833 0.0307521 0.0170967)
(99.6759 0.0363324 0.0237816)
(99.5441 0.0392571 0.0323499)
(99.3903 0.036558 0.0433202)
(99.2239 0.0236014 0.0572378)
(99.0647 -0.00602128 0.0741873)
(98.9459 -0.0580309 0.0937416)
(98.9077 -0.130114 0.115044)
(98.9763 -0.20417 0.137188)
(99.1421 -0.260554 0.158243)
(99.3602 -0.288598 0.176755)
(99.5818 -0.297929 0.192402)
(99.7795 -0.297511 0.205051)
(99.9457 -0.291955 0.215021)
(100.081 -0.284087 0.22255)
(100.19 -0.275808 0.228073)
(100.275 -0.268342 0.231761)
(100.341 -0.261829 0.234113)
(100.391 -0.256045 0.235681)
(100.431 -0.251435 0.236496)
(100.461 -0.247967 0.236869)
(100.486 -0.245337 0.23727)
(100.506 -0.243747 0.23768)
(100.521 -0.243096 0.238246)
(100.533 -0.243063 0.239171)
(100.543 -0.243474 0.240434)
(100.55 -0.24423 0.241921)
(100.556 -0.245301 0.243454)
(100.56 -0.246465 0.24505)
(100.564 -0.247652 0.246598)
(100.567 -0.248851 0.24795)
(100.57 -0.250079 0.248967)
(100.574 -0.251402 0.249489)
(100.579 -0.252694 0.249594)
(100.586 -0.253991 0.249272)
(100.6 -0.255522 0.248564)
(99.9936 0.0173968 0.00231894)
(99.9716 0.0352346 0.00490152)
(99.9305 0.0538165 0.00797836)
(99.8689 0.0734625 0.0118646)
(99.7845 0.0935536 0.0169127)
(99.6739 0.111996 0.0235529)
(99.5342 0.123869 0.0322479)
(99.3648 0.120369 0.0435518)
(99.1719 0.0868936 0.0579989)
(98.9742 0.00242952 0.0758305)
(98.8127 -0.150368 0.0968793)
(98.7535 -0.365145 0.119365)
(98.8406 -0.589613 0.143185)
(99.0521 -0.751795 0.165895)
(99.315 -0.83305 0.18552)
(99.5645 -0.86337 0.201613)
(99.7765 -0.865085 0.214478)
(99.9495 -0.85131 0.224507)
(100.087 -0.830842 0.232021)
(100.195 -0.808555 0.237413)
(100.277 -0.787499 0.241152)
(100.341 -0.769476 0.24375)
(100.388 -0.754358 0.245497)
(100.425 -0.742127 0.246489)
(100.453 -0.731475 0.247036)
(100.475 -0.721744 0.247544)
(100.493 -0.713652 0.248254)
(100.507 -0.707535 0.249314)
(100.518 -0.703162 0.250774)
(100.527 -0.700324 0.252569)
(100.534 -0.698855 0.254559)
(100.54 -0.698603 0.256579)
(100.544 -0.699179 0.258492)
(100.548 -0.700365 0.260148)
(100.55 -0.702045 0.261404)
(100.553 -0.704165 0.262146)
(100.557 -0.70673 0.262291)
(100.561 -0.709534 0.261836)
(100.568 -0.712553 0.260818)
(100.579 -0.715871 0.2594)
(99.9939 0.0284795 0.00221786)
(99.973 0.0577617 0.00468875)
(99.9336 0.0890073 0.00766331)
(99.8736 0.122983 0.0114355)
(99.7891 0.159367 0.0163689)
(99.6742 0.195802 0.0229369)
(99.5212 0.225964 0.031717)
(99.3229 0.236231 0.0434003)
(99.0765 0.200013 0.0587442)
(98.7992 0.0689714 0.078391)
(98.5501 -0.265572 0.102671)
(98.4407 -0.727914 0.130612)
(98.5662 -1.14607 0.156701)
(98.8723 -1.38515 0.181206)
(99.2162 -1.48285 0.201596)
(99.5134 -1.51293 0.217751)
(99.7521 -1.50058 0.230547)
(99.9382 -1.46785 0.240495)
(100.08 -1.42837 0.247865)
(100.187 -1.38797 0.253067)
(100.266 -1.35181 0.256895)
(100.324 -1.31851 0.259662)
(100.367 -1.29558 0.261322)
(100.4 -1.28232 0.262181)
(100.427 -1.27289 0.262788)
(100.448 -1.26481 0.263605)
(100.464 -1.25826 0.264921)
(100.475 -1.25353 0.266872)
(100.483 -1.25041 0.269438)
(100.489 -1.24865 0.272454)
(100.493 -1.248 0.275649)
(100.495 -1.24821 0.278706)
(100.496 -1.249 0.281311)
(100.497 -1.25016 0.283196)
(100.496 -1.25156 0.284146)
(100.495 -1.25318 0.284034)
(100.495 -1.25502 0.282806)
(100.495 -1.25708 0.280511)
(100.498 -1.2593 0.277327)
(100.503 -1.26148 0.273703)
(99.9946 0.0385714 0.00205936)
(99.9758 0.0785862 0.00435825)
(99.94 0.12226 0.00713341)
(99.8843 0.171505 0.0106696)
(99.8031 0.227422 0.0153336)
(99.6873 0.289425 0.0216226)
(99.5223 0.353238 0.0301979)
(99.2879 0.406284 0.0419088)
(98.955 0.418896 0.0578279)
(98.4601 0.217438 0.0792921)
(98.2048 0.0374999 0.085997)
(97.8621 -0.618185 0.101756)
(97.9304 -1.41903 0.11588)
(98.4099 -1.93138 0.128115)
(98.9092 -2.08074 0.140208)
(99.2969 -2.11419 0.148714)
(99.6057 -2.08319 0.154959)
(99.8366 -2.02065 0.159658)
(100.005 -1.95199 0.162974)
(100.129 -1.88943 0.165175)
(100.287 -1.95825 0.277444)
(100.33 -1.89381 0.282711)
(100.35 -1.84262 0.283886)
(100.363 -1.80656 0.282961)
(100.375 -1.77972 0.28236)
(100.382 -1.76065 0.283113)
(100.382 -1.74885 0.285441)
(100.377 -1.74316 0.289222)
(100.368 -1.74216 0.29409)
(100.355 -1.74454 0.299493)
(100.34 -1.74906 0.304782)
(100.322 -1.75459 0.309328)
(100.301 -1.76021 0.312588)
(100.28 -1.76523 0.314164)
(100.257 -1.76925 0.313822)
(100.234 -1.77214 0.311492)
(100.211 -1.77403 0.307243)
(100.189 -1.77519 0.301298)
(100.169 -1.77587 0.294078)
(100.148 -1.77553 0.286531)
(99.9956 0.0469087 0.00184157)
(99.9804 0.0960572 0.00389788)
(99.9511 0.15095 0.00637123)
(99.9043 0.215217 0.00951599)
(99.8335 0.292532 0.0136717)
(99.7276 0.386494 0.0193026)
(99.5669 0.49979 0.0270543)
(99.3189 0.630983 0.0377834)
(98.8791 0.766604 0.052622)
(98.5369 0.772412 0.058012)
(97.729 0.381193 0.0717116)
(96.9307 -0.686143 0.0894486)
(97.0308 -2.33588 0.104333)
(98.1568 -2.93515 0.116422)
(98.8741 -2.96261 0.132003)
(99.33 -2.92209 0.140426)
(99.6782 -2.81447 0.145473)
(99.9103 -2.69479 0.149364)
(100.064 -2.5855 0.152209)
(100.162 -2.49663 0.154222)
(100.225 -2.44924 0.157265)
(100.131 -2.58244 0.314833)
(100.022 -2.55897 0.315003)
(99.917 -2.51994 0.309668)
(99.8207 -2.47765 0.303813)
(99.7258 -2.44213 0.299758)
(99.6305 -2.41552 0.298215)
(99.5354 -2.39684 0.299127)
(99.4413 -2.38462 0.301906)
(99.3486 -2.37732 0.305593)
(99.2581 -2.37327 0.309088)
(99.1705 -2.37079 0.311352)
(99.0866 -2.36844 0.311567)
(99.007 -2.36511 0.309208)
(98.9323 -2.36009 0.304077)
(98.8627 -2.35311 0.296254)
(98.7988 -2.34432 0.286028)
(98.741 -2.33441 0.273852)
(98.6908 -2.32466 0.260379)
(98.6426 -2.31747 0.246965)
(99.9971 0.0525508 0.00156663)
(99.9871 0.108127 0.00330934)
(99.9674 0.17147 0.00537844)
(99.9352 0.248048 0.00796956)
(99.8849 0.344601 0.0113451)
(99.8062 0.470331 0.0158572)
(99.6797 0.638765 0.0219845)
(99.469 0.870043 0.0303319)
(99.0502 1.19542 0.0416313)
(98.6421 1.35537 0.0461115)
(97.69 1.49286 0.0445047)
(95.5869 0.715366 0.0415762)
(94.4015 -3.43381 0.0567696)
(98.2063 -4.72063 0.0503985)
(98.7285 -3.9443 0.0713229)
(99.288 -3.85956 0.0653592)
(99.6492 -3.6438 0.0552796)
(99.7965 -3.43058 0.0439347)
(99.8244 -3.25683 0.0312022)
(99.7635 -3.09633 0.0200185)
(98.53 -2.8982 0.110889)
(95.0449 -2.61507 0.172444)
(95.1359 -2.65473 0.157688)
(95.245 -2.65712 0.147467)
(95.3392 -2.6452 0.141003)
(95.4199 -2.63481 0.136936)
(95.4922 -2.63101 0.133851)
(95.5576 -2.63438 0.130672)
(95.6164 -2.64384 0.126762)
(95.6692 -2.65733 0.121863)
(95.7167 -2.67218 0.116008)
(95.7599 -2.68568 0.10941)
(95.7997 -2.69552 0.102349)
(95.8366 -2.70005 0.0951095)
(95.8712 -2.69839 0.0879032)
(95.9041 -2.6904 0.0808251)
(95.936 -2.67665 0.0738317)
(95.9673 -2.65836 0.0667185)
(95.9982 -2.63739 0.0591129)
(96.0336 -2.6165 0.050502)
(99.999 0.0545424 0.00128184)
(99.9954 0.112653 0.0026496)
(99.9881 0.179865 0.00422163)
(99.9757 0.262908 0.00612352)
(99.9555 0.370714 0.00849525)
(99.9226 0.516778 0.0115038)
(99.8687 0.723051 0.0153196)
(99.779 1.028 0.0200307)
(99.6055 1.50491 0.0254668)
(99.337 1.90344 0.0277125)
(98.6157 2.83579 0.0250157)
(95.4646 5.82172 0.0191)
(77.142 -4.33513 0.0320446)
(102.732 -10.2931 0.0231849)
(53.7121 -3.51747 -0.125491)
(75.6986 -4.5309 -0.0621121)
(79.3445 -3.70552 0.0338317)
(81.9782 -3.29388 0.0911198)
(84.0982 -3.0601 0.0965746)
(85.9391 -2.96697 0.067284)
(93.1231 -3.77571 -0.0536967)
(96.4661 -3.40241 -0.252831)
(96.5548 -3.26094 -0.25009)
(96.6537 -3.15367 -0.24821)
(96.7354 -3.07105 -0.249595)
(96.812 -3.00627 -0.254448)
(96.8942 -2.95636 -0.26157)
(96.9838 -2.91898 -0.269325)
(97.0778 -2.89152 -0.276101)
(97.1725 -2.87126 -0.280567)
(97.2642 -2.8556 -0.281825)
(97.3495 -2.84225 -0.279468)
(97.4261 -2.82934 -0.273556)
(97.4926 -2.81549 -0.264535)
(97.5485 -2.79984 -0.253141)
(97.5945 -2.78192 -0.240295)
(97.6317 -2.76162 -0.227046)
(97.6623 -2.73896 -0.214516)
(97.6886 -2.71381 -0.204032)
(97.7219 -2.68499 -0.197856)
(100.001 0.0525423 0.00102248)
(100.005 0.108493 0.00200013)
(100.011 0.173676 0.00304635)
(100.02 0.25499 0.00420049)
(100.034 0.361578 0.00546908)
(100.055 0.507034 0.00680932)
(100.089 0.712753 0.0080569)
(100.151 1.01451 0.00876498)
(100.294 1.4745 0.00792133)
(100.341 1.8844 0.00749687)
(100.614 2.86803 0.00310807)
(102.43 5.39798 -0.00630344)
(111.197 3.90285 -0.0503215)
(109.056 -6.7723 0.0183854)
(102.798 -6.77416 -0.0413558)
(101.157 -4.99137 -0.0521022)
(100.708 -4.01697 -0.0535112)
(100.528 -3.48683 -0.0530064)
(100.434 -3.18014 -0.0522829)
(100.355 -2.99905 -0.0526485)
(100.254 -2.76377 -0.135832)
(100.277 -2.33152 -0.276716)
(100.259 -2.2123 -0.278505)
(100.249 -2.13682 -0.276777)
(100.246 -2.09063 -0.274473)
(100.244 -2.06141 -0.272894)
(100.242 -2.044 -0.272392)
(100.241 -2.03572 -0.273045)
(100.239 -2.03403 -0.274736)
(100.236 -2.03657 -0.277148)
(100.231 -2.04138 -0.279835)
(100.226 -2.04695 -0.282323)
(100.219 -2.05218 -0.284186)
(100.213 -2.05628 -0.285106)
(100.206 -2.05873 -0.284922)
(100.2 -2.05919 -0.28365)
(100.196 -2.05742 -0.281488)
(100.193 -2.05312 -0.278795)
(100.194 -2.04576 -0.27604)
(100.201 -2.0344 -0.273541)
(100.003 0.0461034 0.000610453)
(100.013 0.0952105 0.0012489)
(100.032 0.152461 0.00183709)
(100.062 0.223788 0.00230366)
(100.107 0.316686 0.00254934)
(100.175 0.441313 0.0023676)
(100.278 0.611846 0.00134336)
(100.445 0.847788 -0.00129653)
(100.761 1.17363 -0.0069852)
(100.985 1.41306 -0.00928953)
(101.837 1.86995 -0.0174763)
(103.453 1.77494 -0.0327992)
(105.243 -0.235967 -0.0515254)
(104.79 -2.82422 -0.0329347)
(102.996 -3.54557 -0.0515305)
(101.782 -3.33823 -0.0672968)
(101.149 -2.99726 -0.0778523)
(100.805 -2.70842 -0.084932)
(100.604 -2.4908 -0.0897367)
(100.469 -2.32654 -0.0932669)
(100.374 -2.19298 -0.0969004)
(100.277 -1.89996 -0.259149)
(100.245 -1.85735 -0.258929)
(100.228 -1.82356 -0.256757)
(100.22 -1.79853 -0.254588)
(100.218 -1.77942 -0.253244)
(100.218 -1.76455 -0.252878)
(100.219 -1.75341 -0.253396)
(100.22 -1.74552 -0.254564)
(100.22 -1.74019 -0.25605)
(100.219 -1.7367 -0.257508)
(100.217 -1.73434 -0.258645)
(100.214 -1.73246 -0.259256)
(100.211 -1.7305 -0.25924)
(100.208 -1.72792 -0.258608)
(100.206 -1.72429 -0.257467)
(100.204 -1.71922 -0.256006)
(100.205 -1.71238 -0.254478)
(100.21 -1.70356 -0.25317)
(100.225 -1.69308 -0.252367)
(100.004 0.0357163 0.00041544)
(100.02 0.0738986 0.000771344)
(100.049 0.118257 0.000942072)
(100.095 0.173093 0.000816869)
(100.164 0.243434 0.000228251)
(100.264 0.33511 -0.00115118)
(100.41 0.454393 -0.00386324)
(100.629 0.605758 -0.00880053)
(100.963 0.785444 -0.0174165)
(101.449 0.869592 -0.0315881)
(102.089 0.772055 -0.0531232)
(102.766 0.243121 -0.0827235)
(103.127 -0.747703 -0.115796)
(102.881 -1.5825 -0.145742)
(102.238 -1.89497 -0.175787)
(101.605 -1.90726 -0.200391)
(101.154 -1.82709 -0.217771)
(100.861 -1.72603 -0.229452)
(100.665 -1.62815 -0.237114)
(100.528 -1.53951 -0.241906)
(100.434 -1.46077 -0.244757)
(100.373 -1.38944 -0.246446)
(100.333 -1.32974 -0.246844)
(100.306 -1.27949 -0.246434)
(100.288 -1.23902 -0.245762)
(100.277 -1.20742 -0.24515)
(100.268 -1.18311 -0.244776)
(100.261 -1.16482 -0.244736)
(100.256 -1.15147 -0.245061)
(100.25 -1.1421 -0.245725)
(100.245 -1.13578 -0.24666)
(100.24 -1.13169 -0.247777)
(100.234 -1.12912 -0.248984)
(100.229 -1.12747 -0.250194)
(100.225 -1.12614 -0.251355)
(100.221 -1.12468 -0.25244)
(100.219 -1.12272 -0.253467)
(100.219 -1.11991 -0.25449)
(100.222 -1.11614 -0.255601)
(100.23 -1.11161 -0.256911)
(100.005 0.0226587 0.000244657)
(100.025 0.0467471 0.000362265)
(100.061 0.0747008 0.000236826)
(100.118 0.108851 -0.000279949)
(100.201 0.152082 -0.00143616)
(100.318 0.206798 -0.00358343)
(100.483 0.274464 -0.00729754)
(100.711 0.352591 -0.0133966)
(101.021 0.428263 -0.0230179)
(101.422 0.462243 -0.0374648)
(101.887 0.398321 -0.0578859)
(102.317 0.16135 -0.0846571)
(102.541 -0.259658 -0.115355)
(102.425 -0.691099 -0.145486)
(102.035 -0.939024 -0.173209)
(101.574 -1.00318 -0.195897)
(101.192 -0.978697 -0.212942)
(100.916 -0.927734 -0.224889)
(100.718 -0.873547 -0.232943)
(100.574 -0.822696 -0.238068)
(100.468 -0.77787 -0.24103)
(100.391 -0.742135 -0.242465)
(100.337 -0.715632 -0.242837)
(100.298 -0.696595 -0.242427)
(100.271 -0.683525 -0.241568)
(100.252 -0.675277 -0.24058)
(100.238 -0.670694 -0.239699)
(100.228 -0.668825 -0.239063)
(100.221 -0.66898 -0.238725)
(100.215 -0.670626 -0.23868)
(100.21 -0.673282 -0.238885)
(100.205 -0.676537 -0.239275)
(100.202 -0.680025 -0.239781)
(100.199 -0.683473 -0.24034)
(100.196 -0.686348 -0.240942)
(100.195 -0.688567 -0.241545)
(100.195 -0.689971 -0.242146)
(100.198 -0.690417 -0.242791)
(100.204 -0.689855 -0.243572)
(100.219 -0.688237 -0.244695)
(100.006 0.00776119 0.000142203)
(100.027 0.0159595 0.000180247)
(100.067 0.025508 -0.000127562)
(100.129 0.0370392 -0.000791225)
(100.218 0.0515846 -0.00224399)
(100.343 0.0696948 -0.0047689)
(100.514 0.0913722 -0.0089784)
(100.742 0.115136 -0.0155719)
(101.033 0.135871 -0.025668)
(101.383 0.140947 -0.0400385)
(101.756 0.110392 -0.0593993)
(102.078 0.0234921 -0.0837088)
(102.244 -0.116525 -0.111448)
(102.176 -0.262143 -0.139809)
(101.901 -0.35569 -0.165539)
(101.537 -0.386123 -0.187187)
(101.198 -0.381905 -0.204105)
(100.933 -0.367264 -0.216241)
(100.735 -0.351262 -0.224546)
(100.587 -0.336141 -0.229864)
(100.477 -0.322659 -0.232943)
(100.396 -0.311379 -0.234384)
(100.338 -0.30189 -0.23468)
(100.298 -0.29359 -0.234137)
(100.269 -0.28594 -0.233216)
(100.25 -0.278782 -0.23221)
(100.236 -0.272053 -0.231313)
(100.226 -0.265725 -0.230652)
(100.218 -0.259813 -0.230295)
(100.211 -0.254342 -0.230263)
(100.206 -0.249315 -0.230539)
(100.201 -0.244719 -0.231075)
(100.197 -0.240534 -0.2318)
(100.193 -0.236759 -0.232603)
(100.19 -0.233132 -0.233632)
(100.189 -0.229718 -0.234715)
(100.189 -0.226496 -0.235797)
(100.191 -0.223437 -0.236896)
(100.195 -0.220636 -0.238083)
(100.205 -0.218584 -0.239561)
(99.9935 0.00580541 0.00700378)
(99.9714 0.011716 0.0148172)
(99.9305 0.0178469 0.0239836)
(99.8698 0.0242245 0.0355236)
(99.788 0.0305757 0.0504511)
(99.6832 0.0361166 0.0699684)
(99.5546 0.039171 0.0951597)
(99.4048 0.0368049 0.127482)
(99.2427 0.0243743 0.168301)
(99.0875 -0.00439545 0.217997)
(98.9713 -0.0550218 0.275781)
(98.9339 -0.125903 0.339093)
(99.0004 -0.197974 0.404029)
(99.1615 -0.252348 0.465392)
(99.3742 -0.279143 0.519072)
(99.5912 -0.287875 0.563968)
(99.7861 -0.287135 0.600086)
(99.9514 -0.281454 0.628296)
(100.088 -0.273576 0.649446)
(100.197 -0.265459 0.664675)
(100.284 -0.257903 0.674889)
(100.352 -0.251129 0.681467)
(100.404 -0.245163 0.685749)
(100.443 -0.240378 0.688208)
(100.474 -0.236732 0.689446)
(100.498 -0.234001 0.690183)
(100.516 -0.232113 0.690544)
(100.53 -0.230974 0.690855)
(100.54 -0.230419 0.691488)
(100.546 -0.230317 0.692498)
(100.551 -0.230584 0.693805)
(100.554 -0.231174 0.695251)
(100.556 -0.232029 0.696894)
(100.557 -0.23311 0.698602)
(100.558 -0.234393 0.700163)
(100.56 -0.235872 0.701349)
(100.563 -0.237534 0.701893)
(100.567 -0.239332 0.701779)
(100.575 -0.241266 0.700849)
(100.589 -0.243434 0.698945)
(99.9937 0.0172581 0.00686597)
(99.9721 0.0348818 0.0144698)
(99.9318 0.0533607 0.0235442)
(99.8717 0.0728874 0.0349891)
(99.7894 0.0928488 0.0498313)
(99.6816 0.111197 0.0693269)
(99.5456 0.123307 0.0948926)
(99.3809 0.120541 0.128182)
(99.1932 0.0884906 0.170785)
(99.0008 0.00665519 0.223633)
(98.8429 -0.141814 0.286339)
(98.7858 -0.349847 0.355808)
(98.8719 -0.569284 0.427337)
(99.0781 -0.728822 0.494051)
(99.3344 -0.807898 0.550711)
(99.5782 -0.837388 0.59676)
(99.7866 -0.838715 0.633241)
(99.9578 -0.824827 0.661356)
(100.095 -0.804491 0.682152)
(100.203 -0.782533 0.696778)
(100.286 -0.761384 0.706561)
(100.35 -0.743023 0.713221)
(100.398 -0.727891 0.717774)
(100.434 -0.71569 0.720539)
(100.462 -0.704891 0.721987)
(100.484 -0.694849 0.722783)
(100.501 -0.685985 0.723407)
(100.514 -0.678654 0.724188)
(100.523 -0.672833 0.725305)
(100.53 -0.668448 0.726763)
(100.535 -0.665471 0.728474)
(100.539 -0.663877 0.730313)
(100.541 -0.663572 0.732177)
(100.543 -0.664498 0.733912)
(100.544 -0.666594 0.735328)
(100.546 -0.669781 0.736227)
(100.548 -0.67398 0.736418)
(100.552 -0.679025 0.735768)
(100.558 -0.684703 0.734155)
(100.57 -0.690736 0.731543)
(99.994 0.0282214 0.0065623)
(99.9736 0.0572238 0.0138441)
(99.9351 0.0881741 0.0225967)
(99.8765 0.12181 0.0336968)
(99.7943 0.157827 0.0482194)
(99.6826 0.193952 0.0675553)
(99.534 0.224053 0.0934381)
(99.3414 0.234806 0.127975)
(99.1021 0.200122 0.173479)
(98.8327 0.0725245 0.231949)
(98.5912 -0.254301 0.303916)
(98.4848 -0.706407 0.385901)
(98.6068 -1.11514 0.468098)
(98.9055 -1.34929 0.542425)
(99.2406 -1.44513 0.602395)
(99.5309 -1.47499 0.649321)
(99.7655 -1.46258 0.685958)
(99.9493 -1.42978 0.713864)
(100.09 -1.3902 0.734015)
(100.195 -1.34937 0.747593)
(100.274 -1.31114 0.756145)
(100.331 -1.2752 0.762125)
(100.372 -1.25285 0.766564)
(100.404 -1.24155 0.769561)
(100.431 -1.23341 0.771414)
(100.452 -1.22533 0.772669)
(100.467 -1.21752 0.773822)
(100.478 -1.21044 0.775163)
(100.486 -1.20428 0.776786)
(100.492 -1.19921 0.778631)
(100.495 -1.19543 0.78053)
(100.497 -1.19315 0.782271)
(100.497 -1.19247 0.783638)
(100.495 -1.19344 0.784414)
(100.493 -1.19607 0.784392)
(100.49 -1.20032 0.783377)
(100.487 -1.20612 0.781202)
(100.486 -1.2133 0.777752)
(100.486 -1.22148 0.773039)
(100.491 -1.22971 0.767419)
(99.9947 0.0381979 0.00608733)
(99.9764 0.0778034 0.0128568)
(99.9415 0.120984 0.0210198)
(99.8873 0.169617 0.0314301)
(99.8085 0.22478 0.045184)
(99.696 0.285906 0.0637639)
(99.536 0.348793 0.0891808)
(99.3083 0.40105 0.124075)
(98.9846 0.413374 0.171834)
(98.502 0.215164 0.236578)
(98.2476 0.032423 0.269274)
(97.9125 -0.625411 0.345385)
(97.9837 -1.42107 0.42561)
(98.4595 -1.93473 0.499342)
(98.9482 -2.08451 0.556747)
(99.3274 -2.12133 0.599027)
(99.6311 -2.09254 0.63186)
(99.8587 -2.02991 0.657648)
(100.024 -1.95964 0.676848)
(100.146 -1.89445 0.69028)
(100.291 -1.92234 0.819386)
(100.329 -1.84809 0.826013)
(100.342 -1.7956 0.8284)
(100.353 -1.76393 0.828618)
(100.366 -1.74216 0.828906)
(100.376 -1.72631 0.830141)
(100.38 -1.71485 0.832451)
(100.38 -1.70647 0.835693)
(100.375 -1.70028 0.839544)
(100.366 -1.69595 0.843544)
(100.354 -1.69348 0.847184)
(100.338 -1.693 0.849983)
(100.318 -1.69467 0.851531)
(100.295 -1.69859 0.851489)
(100.27 -1.70481 0.849594)
(100.241 -1.71331 0.845641)
(100.211 -1.724 0.839474)
(100.181 -1.73676 0.831008)
(100.153 -1.75118 0.820334)
(100.123 -1.76554 0.808089)
(99.9957 0.0464197 0.0054349)
(99.981 0.0950187 0.0114836)
(99.9525 0.149215 0.0187607)
(99.9071 0.212554 0.0280317)
(99.8386 0.288611 0.0403208)
(99.736 0.380863 0.0570475)
(99.58 0.491844 0.0802194)
(99.3389 0.619915 0.112595)
(98.9093 0.751293 0.157883)
(98.57 0.751908 0.183741)
(97.7739 0.359431 0.249925)
(96.9883 -0.703911 0.335873)
(97.0962 -2.33694 0.432748)
(98.2165 -2.92821 0.518157)
(98.9146 -2.94568 0.575332)
(99.3558 -2.91217 0.609113)
(99.7007 -2.80862 0.636902)
(99.9316 -2.68644 0.662843)
(100.082 -2.5717 0.684532)
(100.175 -2.47775 0.700499)
(100.239 -2.42045 0.713189)
(100.148 -2.54824 0.832917)
(100.02 -2.5396 0.828603)
(99.8988 -2.51324 0.817623)
(99.7932 -2.47991 0.805991)
(99.6946 -2.44823 0.79633)
(99.601 -2.41972 0.789204)
(99.5131 -2.39382 0.784436)
(99.4302 -2.37033 0.781418)
(99.3511 -2.34954 0.77924)
(99.2743 -2.33181 0.776889)
(99.1985 -2.31751 0.773436)
(99.1226 -2.30694 0.768133)
(99.0462 -2.3003 0.760462)
(98.9691 -2.29765 0.750118)
(98.8917 -2.29894 0.736965)
(98.8149 -2.30408 0.720942)
(98.7405 -2.31315 0.702043)
(98.6717 -2.32677 0.680401)
(98.6043 -2.34706 0.657105)
(99.9972 0.0519943 0.00459819)
(99.9876 0.106889 0.00971063)
(99.9687 0.16934 0.0157971)
(99.9377 0.24469 0.0234493)
(99.8892 0.339486 0.0334737)
(99.8131 0.462656 0.0469812)
(99.6904 0.627282 0.0655141)
(99.4848 0.852803 0.0911744)
(99.0734 1.16928 0.126688)
(98.6681 1.32512 0.148128)
(97.723 1.45609 0.178223)
(95.638 0.672582 0.235973)
(94.4734 -3.46614 0.338544)
(98.3196 -4.70839 0.450368)
(98.8279 -3.8008 0.497952)
(99.326 -3.76008 0.482907)
(99.6842 -3.61722 0.499714)
(99.8267 -3.42969 0.562479)
(99.8328 -3.24228 0.645266)
(99.7432 -3.05422 0.71658)
(98.8192 -2.66771 0.7598)
(95.3293 -2.3364 0.400292)
(95.3142 -2.44169 0.383178)
(95.3194 -2.50255 0.366035)
(95.3234 -2.53981 0.352539)
(95.3327 -2.566 0.343897)
(95.354 -2.58372 0.339448)
(95.3877 -2.59347 0.337954)
(95.4311 -2.59636 0.338192)
(95.4811 -2.59415 0.339154)
(95.535 -2.58885 0.340097)
(95.5908 -2.58246 0.340543)
(95.6471 -2.57684 0.340127)
(95.7032 -2.57349 0.338602)
(95.7589 -2.57338 0.335754)
(95.8141 -2.57701 0.331303)
(95.8693 -2.5844 0.324827)
(95.9246 -2.59549 0.31564)
(95.9795 -2.61071 0.302558)
(96.0455 -2.63284 0.283305)
(99.999 0.0539837 0.00375157)
(99.9957 0.111337 0.00776856)
(99.989 0.177533 0.0123955)
(99.9775 0.259149 0.0180169)
(99.9584 0.364868 0.0250865)
(99.9271 0.507801 0.0341664)
(99.875 0.709274 0.0459126)
(99.7874 1.00677 0.0608765)
(99.6149 1.4719 0.0790101)
(99.3471 1.86364 0.0898363)
(98.6268 2.78191 0.101112)
(95.4771 5.72889 0.119708)
(77.2901 -4.56918 0.184401)
(42.4345 -0.437971 0.934433)
(72.2006 -3.68909 -0.317369)
(79.2271 -3.74399 -0.774068)
(83.3509 -3.82974 -0.963461)
(85.7276 -3.75798 -1.02258)
(87.199 -3.61246 -0.985523)
(91.4625 -3.46277 -0.721988)
(96.0073 -3.27672 -0.681552)
(96.2135 -3.16914 -0.671262)
(96.4142 -3.09449 -0.657854)
(96.5708 -3.04118 -0.646069)
(96.6921 -2.99995 -0.636716)
(96.7901 -2.96601 -0.629011)
(96.8711 -2.93665 -0.621837)
(96.9394 -2.91027 -0.614069)
(96.9998 -2.8861 -0.604762)
(97.0568 -2.86398 -0.593303)
(97.1147 -2.84407 -0.579467)
(97.1762 -2.82668 -0.56338)
(97.2432 -2.81201 -0.545474)
(97.3162 -2.80013 -0.526412)
(97.3948 -2.79083 -0.507056)
(97.4778 -2.78362 -0.488506)
(97.5636 -2.77769 -0.472137)
(97.6495 -2.77168 -0.459895)
(97.7504 -2.76282 -0.455015)
(100.001 0.051854 0.00282889)
(100.005 0.107086 0.00569445)
(100.011 0.171291 0.00878929)
(100.021 0.251183 0.0122236)
(100.036 0.355663 0.0160491)
(100.057 0.497942 0.0202048)
(100.091 0.698854 0.0243096)
(100.151 0.993344 0.0272314)
(100.289 1.44247 0.0261738)
(100.334 1.84596 0.0240863)
(100.598 2.81666 0.0117072)
(102.381 5.32519 -0.0307582)
(110.932 4.08378 -0.12205)
(108.95 -6.54942 -0.317721)
(102.751 -6.69338 -0.366462)
(101.131 -4.92451 -0.406833)
(100.695 -3.96571 -0.455219)
(100.53 -3.44342 -0.499042)
(100.452 -3.13783 -0.532385)
(100.387 -2.95665 -0.554509)
(100.281 -2.73234 -0.633939)
(100.306 -2.33729 -0.763379)
(100.295 -2.23249 -0.765273)
(100.286 -2.16902 -0.761294)
(100.278 -2.13016 -0.756291)
(100.268 -2.10289 -0.751722)
(100.258 -2.08275 -0.747656)
(100.248 -2.06853 -0.744083)
(100.238 -2.05948 -0.740952)
(100.229 -2.05492 -0.738094)
(100.221 -2.05424 -0.735287)
(100.213 -2.05689 -0.732337)
(100.207 -2.0622 -0.729116)
(100.202 -2.06944 -0.725566)
(100.199 -2.07779 -0.721798)
(100.196 -2.08636 -0.718056)
(100.195 -2.09418 -0.714783)
(100.196 -2.10011 -0.712612)
(100.2 -2.10251 -0.712317)
(100.212 -2.09832 -0.714303)
(100.003 0.0454859 0.00180301)
(100.013 0.0939744 0.00363026)
(100.032 0.150353 0.00532216)
(100.062 0.220419 0.00670611)
(100.107 0.311475 0.00749507)
(100.174 0.433377 0.00710895)
(100.276 0.599951 0.00439861)
(100.439 0.830234 -0.00281228)
(100.747 1.14816 -0.0186153)
(100.967 1.38334 -0.0298917)
(101.801 1.83254 -0.0695142)
(103.392 1.73541 -0.145032)
(105.151 -0.24376 -0.254866)
(104.704 -2.7981 -0.374597)
(102.947 -3.53553 -0.463767)
(101.751 -3.33379 -0.524938)
(101.13 -2.99775 -0.56721)
(100.795 -2.71243 -0.595052)
(100.6 -2.49688 -0.612644)
(100.47 -2.33384 -0.623633)
(100.376 -2.19735 -0.631452)
(100.282 -1.88421 -0.778472)
(100.255 -1.83949 -0.776035)
(100.238 -1.80665 -0.770936)
(100.23 -1.78325 -0.765438)
(100.226 -1.76538 -0.760287)
(100.223 -1.75111 -0.75558)
(100.222 -1.73982 -0.751318)
(100.222 -1.73107 -0.74745)
(100.221 -1.72436 -0.743875)
(100.22 -1.71924 -0.740491)
(100.219 -1.71532 -0.737233)
(100.218 -1.71222 -0.734091)
(100.216 -1.70959 -0.731085)
(100.215 -1.70699 -0.728336)
(100.213 -1.704 -0.726027)
(100.213 -1.70012 -0.724433)
(100.214 -1.69478 -0.723919)
(100.218 -1.68753 -0.724895)
(100.231 -1.67857 -0.72765)
(100.004 0.0353429 0.00112563)
(100.02 0.072999 0.002082)
(100.049 0.11665 0.00256249)
(100.095 0.170539 0.00223867)
(100.163 0.239476 0.000577115)
(100.261 0.329175 -0.00334541)
(100.405 0.445744 -0.0110687)
(100.619 0.593519 -0.0251494)
(100.945 0.768726 -0.049751)
(101.418 0.851467 -0.0907672)
(102.043 0.757029 -0.154135)
(102.705 0.240617 -0.243483)
(103.057 -0.724694 -0.350096)
(102.816 -1.54526 -0.46258)
(102.189 -1.85643 -0.557488)
(101.573 -1.86936 -0.627149)
(101.134 -1.7908 -0.674648)
(100.848 -1.69197 -0.705785)
(100.655 -1.59607 -0.725476)
(100.52 -1.50864 -0.736961)
(100.427 -1.43009 -0.742478)
(100.366 -1.35699 -0.743661)
(100.327 -1.29773 -0.742818)
(100.301 -1.24911 -0.740859)
(100.284 -1.20988 -0.738174)
(100.272 -1.17868 -0.735166)
(100.264 -1.15406 -0.732227)
(100.258 -1.13492 -0.729634)
(100.254 -1.12047 -0.727541)
(100.25 -1.11001 -0.726013)
(100.246 -1.10285 -0.72506)
(100.242 -1.09835 -0.72465)
(100.238 -1.09592 -0.724741)
(100.234 -1.09493 -0.725272)
(100.231 -1.09477 -0.726226)
(100.228 -1.09486 -0.727612)
(100.226 -1.09463 -0.7295)
(100.225 -1.09357 -0.732015)
(100.227 -1.09138 -0.735308)
(100.233 -1.08824 -0.739393)
(100.006 0.0223841 0.000607669)
(100.025 0.0461675 0.000903812)
(100.061 0.0736757 0.000541552)
(100.118 0.10731 -0.000928306)
(100.2 0.149669 -0.00423831)
(100.315 0.203255 -0.0104144)
(100.477 0.269488 -0.0210902)
(100.701 0.345994 -0.0386719)
(101.004 0.420075 -0.066482)
(101.394 0.453727 -0.10854)
(101.848 0.391836 -0.168568)
(102.269 0.160401 -0.247764)
(102.488 -0.252729 -0.340991)
(102.377 -0.675593 -0.436364)
(101.997 -0.917201 -0.521142)
(101.548 -0.97908 -0.587263)
(101.175 -0.954436 -0.63483)
(100.905 -0.904246 -0.667603)
(100.71 -0.851019 -0.689373)
(100.566 -0.801009 -0.702885)
(100.459 -0.756712 -0.710203)
(100.382 -0.720971 -0.713089)
(100.327 -0.694563 -0.713317)
(100.288 -0.675553 -0.711748)
(100.261 -0.662378 -0.708963)
(100.243 -0.653866 -0.705552)
(100.23 -0.648896 -0.702036)
(100.222 -0.646548 -0.69877)
(100.217 -0.646181 -0.695956)
(100.213 -0.647307 -0.693695)
(100.211 -0.649491 -0.692016)
(100.209 -0.652358 -0.690901)
(100.207 -0.655558 -0.690307)
(100.206 -0.658786 -0.69018)
(100.205 -0.661706 -0.690522)
(100.205 -0.664082 -0.691283)
(100.205 -0.66568 -0.69247)
(100.208 -0.666326 -0.694163)
(100.212 -0.665944 -0.696508)
(100.224 -0.664597 -0.699727)
(100.006 0.00765794 0.000351199)
(100.027 0.0157785 0.000354275)
(100.067 0.0251416 -0.000479542)
(100.129 0.0365186 -0.00247646)
(100.217 0.0507241 -0.0066341)
(100.34 0.0684323 -0.0138565)
(100.508 0.0896527 -0.0257862)
(100.731 0.112957 -0.0446693)
(101.017 0.133233 -0.0735315)
(101.359 0.138379 -0.115182)
(101.724 0.108892 -0.171984)
(102.04 0.0245371 -0.243937)
(102.203 -0.111717 -0.326746)
(102.139 -0.253774 -0.411676)
(101.871 -0.344561 -0.488958)
(101.515 -0.374117 -0.552203)
(101.183 -0.369958 -0.599619)
(100.922 -0.355587 -0.633145)
(100.725 -0.33989 -0.655855)
(100.577 -0.324995 -0.670229)
(100.465 -0.311644 -0.678281)
(100.383 -0.300368 -0.68171)
(100.324 -0.29079 -0.682039)
(100.283 -0.282339 -0.680362)
(100.255 -0.274604 -0.677651)
(100.237 -0.267406 -0.674517)
(100.225 -0.260641 -0.6714)
(100.217 -0.254275 -0.66863)
(100.212 -0.248338 -0.666425)
(100.209 -0.242879 -0.664898)
(100.207 -0.237929 -0.66408)
(100.206 -0.23349 -0.663939)
(100.204 -0.229538 -0.664397)
(100.203 -0.226022 -0.665317)
(100.201 -0.222836 -0.666858)
(100.201 -0.219914 -0.66879)
(100.2 -0.21718 -0.671034)
(100.202 -0.214581 -0.673625)
(100.205 -0.212186 -0.676662)
(100.211 -0.210483 -0.680315)
(99.9938 0.00570672 0.0113257)
(99.9726 0.011513 0.0237642)
(99.9336 0.0175573 0.0385349)
(99.8759 0.0238519 0.0570555)
(99.7985 0.0301444 0.0809138)
(99.6994 0.0357144 0.112024)
(99.5782 0.0390213 0.15247)
(99.4373 0.0372988 0.204595)
(99.2851 0.026151 0.270543)
(99.1394 -0.000317472 0.351328)
(99.0306 -0.0475128 0.445998)
(98.9957 -0.113534 0.550322)
(99.0585 -0.181102 0.656706)
(99.2106 -0.231963 0.756885)
(99.4121 -0.256818 0.844063)
(99.6186 -0.26469 0.916301)
(99.8055 -0.263598 0.974232)
(99.9655 -0.257872 1.01942)
(100.098 -0.250151 1.05346)
(100.207 -0.242346 1.07807)
(100.293 -0.235044 1.09499)
(100.362 -0.228211 1.10627)
(100.414 -0.22195 1.11389)
(100.454 -0.216831 1.11916)
(100.484 -0.212951 1.12281)
(100.507 -0.210064 1.12535)
(100.523 -0.208005 1.12716)
(100.534 -0.206675 1.1287)
(100.541 -0.20595 1.13035)
(100.545 -0.205705 1.13233)
(100.546 -0.205848 1.13475)
(100.546 -0.206319 1.1376)
(100.546 -0.207064 1.14086)
(100.545 -0.208038 1.14437)
(100.544 -0.209202 1.1479)
(100.545 -0.210544 1.15117)
(100.547 -0.212053 1.15385)
(100.551 -0.213709 1.15559)
(100.558 -0.215518 1.15599)
(100.572 -0.217575 1.15451)
(99.9939 0.0169575 0.0110819)
(99.9733 0.0342672 0.0232717)
(99.935 0.0524402 0.0378118)
(99.878 0.071654 0.0561193)
(99.8002 0.0913521 0.0798444)
(99.6986 0.109651 0.111054)
(99.5707 0.122254 0.152165)
(99.4161 0.121009 0.205988)
(99.2402 0.0922546 0.275346)
(99.0599 0.0165208 0.362243)