/*--------------------------------*- C++ -*----------------------------------*\
| =========                 |                                                 |
| \\      /  F ield         | OpenFOAM: The Open Source CFD Toolbox           |
|  \\    /   O peration     | Version:  2306                                  |
|   \\  /    A nd           | Website:  www.openfoam.com                      |
|    \\/     M anipulation  |                                                 |
\*---------------------------------------------------------------------------*/
FoamFile
{
    version     2.0;
    format      ascii;
    arch        "LSB;label=32;scalar=64";
    class       volVectorField;
    location    "0.05";
    object      Force;
}
// * * * * * * * * * * * * * * * * * * * * * * * * * * * * * * * * * * * * * //

dimensions      [1 1 -2 0 0 0 0];

internalField   uniform (0 0 0);

boundaryField
{
    walls
    {
        type            calculated;
        value           uniform (0 0 0);
    }
    inlet
    {
        type            calculated;
        value           uniform (0 0 0);
    }
    outlet
    {
        type            calculated;
        value           uniform (0 0 0);
    }
    NASA
    {
        type            calculated;
        value           nonuniform List<vector> 
14179
(
(-0.0127766 -0.117783 1.16927e-05)
(-0.0110845 -0.0919401 8.31459e-06)
(-0.0546744 -0.443452 0.00103097)
(-0.0996779 -0.803888 0.0043909)
(-0.0547441 -0.444256 0.000544498)
(-0.109712 -0.884687 0.00488308)
(0.228031 0.99005 -0.000566787)
(0.0981148 0.492236 -7.50229e-05)
(0.691196 3.39009 0.00309416)
(0.105471 0.529197 -8.03414e-05)
(0.00816056 0.045875 -3.39553e-05)
(-0.0178364 -0.146443 0.000776208)
(0.129651 0.648823 -0.0032552)
(-0.0355061 -0.323942 0.00184043)
(0.0614475 0.307058 -0.00150982)
(1.38426 0.933808 0.00286303)
(1.39805 0.926732 -0.000508615)
(0.0312294 0.176831 -0.00011339)
(0.171408 1.01686 -0.000161626)
(1.25995 0.835696 -0.00487782)
(-0.0153783 -0.215674 3.48755e-06)
(-0.018678 -0.174111 -8.26947e-05)
(-0.0176111 -0.245042 -0.000178331)
(-0.00671632 -0.0493156 4.47915e-06)
(-0.0111772 -0.0927728 3.0041e-05)
(-0.00726434 -0.0533402 2.1528e-05)
(-0.0128243 -0.105944 0.000547533)
(-0.0150669 -0.108241 0.00057784)
(-0.0131636 -0.120638 0.000622374)
(-0.0153233 -0.211405 0.00412903)
(0.0492328 0.215061 -7.8172e-06)
(0.0563604 0.265882 -1.10875e-05)
(0.0606056 0.285901 -0.000124861)
(0.0485812 0.211648 -2.81378e-05)
(0.0681975 0.250024 -1.91076e-06)
(0.0716929 0.26283 -1.69575e-05)
(0.0350824 0.12721 -5.66602e-07)
(0.0381144 0.138205 -6.0391e-06)
(-0.00230423 -0.0109369 0.000172239)
(-0.0128936 -0.0628586 0.000800156)
(0.168451 0.616046 -0.00255774)
(0.0984881 0.355615 -0.00107434)
(0.10687 0.53632 -0.000131628)
(-0.00417341 -0.029804 3.68242e-06)
(-0.00388948 -0.0277154 3.09832e-06)
(0.170874 0.85815 -0.000225314)
(-0.00977318 -0.0678245 0.000397559)
(0.0963355 0.481874 -0.00165835)
(0.0895431 0.448337 -0.0016786)
(0.112298 0.45891 -0.0004245)
(0.0870594 0.323666 -2.80201e-05)
(0.0866993 0.322347 -7.9746e-05)
(-0.0638908 1.55773 -0.000223645)
(1.39404 0.926939 -0.000761859)
(-0.0548748 1.34801 8.60032e-05)
(-0.00269042 1.30073 -0.00019226)
(0.067814 1.02633 1.30479e-05)
(0.0674395 1.01934 -0.000265498)
(-0.00238965 1.09347 -1.22345e-05)
(0.0926715 0.364054 -2.83294e-05)
(0.169925 1.00775 -0.000315584)
(0.00711365 0.0258709 -1.70179e-05)
(-0.0229871 0.566058 -0.00198673)
(0.911041 0.62227 0.0742414)
(-0.000927903 0.531147 -0.00215761)
(0.0266494 0.406333 -0.00152163)
(0.126028 0.73924 0.00514639)
(-0.0130231 -0.130588 1.51932e-05)
(-0.012727 -0.117403 2.29954e-05)
(-0.0977665 -0.788596 0.00430295)
(-0.00950906 -0.0757578 7.44887e-06)
(-0.0110625 -0.0917672 1.75197e-05)
(1.3078 0.866418 -0.00569546)
(1.25964 0.83478 -0.00527912)
(0.343737 2.0429 -0.0120328)
(0.258915 1.53327 -0.00838143)
(-0.11121 -0.89807 0.00347761)
(-0.0570437 -0.3558 0.00200295)
(-0.0560286 -0.351959 0.00203794)
(-0.0434297 -0.25526 0.00145988)
(0.155789 0.673086 -0.00385923)
(0.175486 0.760184 -0.00427618)
(0.769418 1.32106 -4.00824e-05)
(0.769921 1.31997 -0.000299722)
(0.098961 0.496421 -9.25997e-05)
(0.0896027 0.430238 -5.34672e-05)
(0.00177959 0.00951907 -3.21188e-06)
(0.00363359 0.0206779 -1.68052e-06)
(0.0036863 0.0209863 -5.47861e-06)
(0.00178278 0.0095414 -9.45767e-07)
(0.10736 0.538732 -8.29708e-05)
(0.101367 0.522515 -6.50533e-05)
(-0.0199372 -0.163456 0.000933215)
(-0.0135164 -0.0971732 0.000579057)
(-0.0202709 -0.145132 0.000826188)
(-0.0123482 -0.0854236 0.000542501)
(-0.0180553 -0.1242 0.000663578)
(0.0847435 0.423626 -0.00240475)
(-0.0199018 -0.181693 0.0010202)
(-0.0245693 -0.338938 0.00200996)
(-0.0206342 -0.291165 0.00103628)
(0.0794617 0.397604 -0.00222938)
(1.3814 0.927792 -0.00265075)
(0.102427 0.603772 -0.000123202)
(0.110783 0.619305 -5.31704e-05)
(0.111838 0.625123 -0.000122786)
(0.199047 1.38583 -0.000288386)
(0.115014 0.682216 -0.000139691)
(0.171105 1.01505 -0.00020344)
(0.0180598 0.0170421 1.90768e-05)
(0.321211 -0.118372 0.00322093)
(0.339052 -0.134427 0.00159444)
(0.0140583 0.013499 -3.62496e-05)
(-0.00707826 -0.0303251 0.000239474)
(0.0206752 0.0763056 -0.000375297)
(0.00165781 0.00548869 3.73667e-05)
(0.0206332 0.0831075 -0.000307488)
(-0.009826 -0.0439054 0.000263087)
(-0.00246269 -0.0133397 0.00015394)
(0.00370482 0.0153704 -3.20311e-05)
(-0.0182688 -0.0884703 0.00049681)
(-0.0013363 0.72957 -0.00381192)
(0.0403206 0.605888 -0.00326494)
(-0.0019207 0.979198 -0.00519056)
(0.0314017 0.478164 -0.00288557)
(-0.0349425 0.865597 -0.00470923)
(1.08982 0.733597 -0.0045483)
(-0.0474083 1.16194 -0.00610965)
(0.108248 0.641952 -0.00449864)
(0.154676 0.60658 -0.00361749)
(0.116373 0.455733 -0.00249128)
(0.107107 0.391326 -0.00212134)
(0.151319 0.553583 -0.00299805)
(0.0623154 0.225172 -0.00121879)
(0.0848646 0.307184 -0.00173585)
(-0.0118326 -0.1336 8.04726e-06)
(-0.0152784 -0.213972 3.59732e-05)
(-0.0085469 -0.0662001 6.7735e-06)
(-0.0065864 -0.0483714 8.18726e-06)
(0.000666774 0.00208804 0.524257)
(-0.012895 -0.101748 0.000532921)
(0.000636396 0.00199366 0.498422)
(-0.0143531 -0.109658 0.00058548)
(0.000955774 0.002403 0.566408)
(-0.0128777 -0.129041 0.000730286)
(0.00120794 0.0028383 0.567264)
(-0.0119693 -0.138498 0.00156541)
(0.0561432 0.264841 -5.95375e-05)
(0.0415556 0.189059 -1.87977e-05)
(0.0418912 0.190611 -4.37537e-05)
(0.0488102 0.212621 -3.59717e-05)
(0.0482458 0.212543 -2.07672e-05)
(0.0484947 0.213667 -4.48503e-05)
(0.0682476 0.250159 -3.13684e-06)
(0.0262978 0.130901 -2.78969e-05)
(0.0238131 0.120947 -2.61495e-05)
(0.035711 0.129476 2.41829e-06)
(0.0307002 0.107952 -9.70435e-07)
(-0.00677773 -0.0310144 0.000312256)
(-0.00571945 -0.0272367 0.00033002)
(0.000490117 0.00162348 0.313652)
(0.000486298 0.00156426 0.305934)
(0.000474685 0.00153303 0.301993)
(0.000335604 0.00153304 0.34747)
(0.0926417 0.316121 -0.000703362)
(0.158274 0.554174 0.00195798)
(6.9351e-06 0.00154455 0.326676)
(0.000400772 0.000887082 0.297213)
(0.000122031 0.000536819 0.104415)
(0.0812239 0.285492 -0.000827009)
(0.289089 0.671626 -5.33741e-06)
(0.172211 0.607179 4.53811e-05)
(0.170482 0.601136 -6.65594e-05)
(0.0789533 0.368511 -3.40583e-05)
(0.0796612 0.371861 -5.7858e-05)
(0.136608 0.652182 -7.00998e-05)
(0.0771313 0.343283 -4.80264e-05)
(0.0803422 0.364439 -2.79116e-05)
(0.0817488 0.370772 -5.31544e-05)
(0.0766103 0.341051 -1.99108e-05)
(-0.001721 -0.0136554 9.87836e-07)
(-0.00411587 -0.0293999 4.00649e-06)
(0.162077 0.858091 -8.11479e-05)
(0.262189 0.452599 0.00946364)
(0.00125492 0.0050901 0.848875)
(0.000343932 0.00271178 0.40465)
(0.0477882 0.139159 -0.000358672)
(-0.0117886 -0.073697 0.000472588)
(-0.0117458 -0.0743363 0.000617308)
(0.001107 0.00321127 0.667486)
(0.000402785 0.000959668 0.306159)
(0.0953882 0.490577 -0.000714688)
(0.000616569 0.00105188 0.369565)
(0.138675 0.730333 0.0027104)
(0.000631297 0.00187807 0.341802)
(0.000480179 0.0016337 0.322255)
(-0.000226457 0.00140298 0.345292)
(7.06409e-05 0.0006804 0.110808)
(0.0798734 0.382175 -0.00145003)
(0.10237 0.476464 -0.000769229)
(0.000506736 0.000662416 0.202477)
(9.82528e-05 0.000761146 0.106005)
(0.168313 0.708502 -0.000686293)
(0.0870833 0.323758 -4.49095e-05)
(0.0831989 0.31852 -3.45599e-05)
(0.100041 0.4079 -6.90842e-05)
(0.0699258 0.281679 -2.02164e-05)
(-0.878775 2.80924 -0.0215252)
(-0.057946 1.41862 -5.81306e-05)
(-0.1844 1.72324 0.000761237)
(0.0677228 1.02309 -0.000130945)
(0.0516261 1.10498 -7.27666e-05)
(-0.00239881 1.14144 -4.26266e-05)
(0.0287128 1.08577 -5.08739e-05)
(0.106365 1.16798 -0.0001461)
(0.131922 1.70406 -0.00011998)
(0.133036 1.71808 -0.000186419)
(0.105542 1.15926 -0.000108799)
(0.125191 1.27941 -0.000197715)
(0.1361 1.26675 -5.93721e-05)
(0.13803 1.28508 -0.000241609)
(0.123507 1.26175 -5.91045e-05)
(0.0641196 0.265598 -2.61401e-05)
(0.0583369 0.231406 -2.26013e-05)
(0.0919112 0.361023 -2.60203e-05)
(0.126569 0.857462 -0.000209812)
(0.126641 0.797602 -0.000164154)
(-0.000194451 0.00200248 0.559777)
(0.00110805 0.00455194 0.880056)
(0.000615729 0.00154532 0.000136986)
(0.000575609 0.00455415 0.727105)
(0.00155815 0.00510402 0.000118172)
(0.000627554 0.0108756 0.273101)
(-0.0603209 0.576548 -0.0025943)
(0.00760354 0.00116038 1.73294)
(0.000448398 0.0012689 0.301238)
(0.0138563 0.513436 -0.00215264)
(0.000828668 0.000687228 0.243076)
(0.0228329 0.481857 -0.00190733)
(0.060495 0.522211 -0.00215422)
(0.0602549 0.512676 -0.00210135)
(0.000431089 0.00102163 0.241397)
(0.000463173 0.0011193 0.265622)
(0.0566882 0.52486 -0.00205148)
(0.0515011 0.521556 -0.00174513)
(0.0465866 0.511973 -0.000418126)
(2.45777e-05 0.000113268 0.22043)
(-0.0188775 -0.103861 0.00145203)
(0.000328197 0.00196544 0.495007)
(0.090741 0.505712 -0.00169467)
(0.000479594 0.00158221 0.312392)
(0.000481802 0.00158861 0.313527)
(0.489038 -0.194684 -0.00367965)
(0.225962 0.213762 0.0016017)
(0.000193306 0.00029603 0.0772203)
(-0.0460281 -0.454004 0.00178513)
(-0.0568843 -0.461204 0.00181975)
(-0.0486337 -0.479691 0.00232672)
(-0.0572179 -0.463884 0.00186578)
(-0.0625951 -0.507024 0.00246996)
(-0.0543099 -0.535315 0.00282481)
(-0.0745783 -0.603012 0.00319741)
(0.178874 0.775618 -0.00436414)
(0.447269 2.19364 -0.0121078)
(0.183149 0.794497 -0.004458)
(0.425443 2.08613 -0.0115432)
(-0.0547115 -0.443892 0.000609582)
(-0.0417955 -0.26129 0.00145125)
(-0.104526 -0.842673 0.0046154)
(-0.0480515 -0.299915 0.00166955)
(1.40076 0.928696 -0.00130824)
(1.3992 0.927498 -0.000578521)
(0.252325 1.09521 -0.00081229)
(0.679691 3.33472 -0.00404728)
(0.614575 3.01493 -0.00234807)
(0.261168 1.13334 -0.00136297)
(0.436717 2.58948 -0.00202515)
(0.496879 2.94631 -0.00359606)
(0.0081549 0.0470012 -5.80135e-05)
(0.00842928 0.0480775 -3.83981e-05)
(0.0315208 0.179651 -0.000224393)
(0.031809 0.180736 -0.00014382)
(0.0470196 0.204278 -0.00101301)
(0.0343047 0.155944 -0.000769921)
(0.0571902 0.24929 -0.0012778)
(0.0260125 0.117312 -0.000547177)
(-0.108901 -0.878761 0.00483998)
(-0.0694067 -0.505829 0.00279943)
(0.0148902 0.0693528 -0.000260183)
(-0.012234 -0.0676673 0.000433593)
(0.0634446 0.231657 -0.00132479)
(0.0711672 0.25982 -0.00146233)
(0.0344375 0.124327 -0.000713219)
(0.0396982 0.143311 -0.000807413)
(0.29379 1.32923 -0.000799585)
(0.184477 0.80036 -0.000217223)
(0.330885 1.56464 -0.00098668)
(0.152796 0.766948 -0.000304628)
(-0.016012 -0.135265 0.000184628)
(-0.033273 -0.24831 0.000344507)
(-0.00549002 -0.0404197 -6.66975e-08)
(0.00848326 0.0471133 -3.96113e-05)
(-0.0101836 -0.0720203 4.42088e-05)
(-0.0133943 -0.0975115 7.75428e-05)
(0.100869 0.412536 6.10914e-05)
(0.0863897 0.321269 -0.000186606)
(0.0865693 0.32188 -0.000110606)
(0.112795 0.462923 -0.000889288)
(0.173542 0.762576 -0.000403129)
(0.150508 0.693948 -0.000274014)
(0.181086 0.796421 -0.00046896)
(0.193154 0.901195 -0.000308943)
(-0.00288278 1.35589 -0.000249886)
(0.0640986 0.96837 -0.000559242)
(-0.00314745 1.41557 -0.00068155)
(0.0661255 0.999473 -0.000329485)
(-0.0657143 1.60266 -0.000288444)
(1.39643 0.926862 -0.000471652)
(-0.0680727 1.65877 -0.000768096)
(0.512465 4.39584 -0.00298767)
(0.0912859 0.3587 -9.2599e-05)
(0.0864736 0.339674 -0.000218683)
(0.0727858 0.266787 -0.000159933)
(0.0739122 0.271006 -4.14558e-05)
(0.0640361 0.336168 -0.000255644)
(0.199485 0.985283 -0.0015561)
(0.0299556 0.168716 -0.00014387)
(0.0556984 0.299572 -0.000190134)
(0.830081 5.19557 0.000594937)
(0.397907 2.6588 -0.000275477)
(0.0395306 0.14331 -8.56233e-05)
(0.0399325 0.144826 -1.52039e-05)
(1.24158 0.825421 -0.00378586)
(0.089074 0.618222 -0.00341887)
(0.244133 0.22913 -0.00129246)
(0.494643 -0.204935 0.000537139)
(0.230929 0.217413 -0.00130505)
(0.516203 -0.214234 0.000296536)
(0.0699914 0.256591 -7.44146e-06)
(0.0335482 0.117952 -2.52379e-06)
(0.0370289 0.134276 2.29562e-06)
(0.289057 0.671595 -3.09961e-05)
(0.280658 0.823972 -0.00014981)
(0.00103131 0.00354701 0.718265)
(0.000428306 0.00196824 0.357003)
(0.000613705 0.00108388 0.378075)
(-0.19997 1.85243 -0.000273239)
(-0.0612599 1.49598 -9.7486e-05)
(1.38992 0.927552 -0.00141865)
(0.0233344 0.0220363 2.33862e-05)
(0.338925 -0.139306 0.000133377)
(0.341632 -0.1389 0.000551861)
(0.0244817 0.0230906 1.50458e-05)
(0.000638386 0.0024189 0.537367)
(0.000490108 0.0012527 0.375943)
(0.000444663 0.00131772 0.337549)
(0.000655604 0.00192922 0.356352)
(-0.0864086 -0.697708 0.00377421)
(1.34315 0.889917 -0.00584942)
(1.32799 0.879852 -0.00578586)
(1.30445 0.864215 -0.0056818)
(1.32639 0.878783 -0.00578028)
(0.396199 1.94177 -0.0107647)
(0.175233 0.759285 -0.00427755)
(0.177455 0.769352 -0.0043306)
(0.417665 2.04784 -0.0113411)
(0.267779 1.58598 -0.00871486)
(0.286832 1.6991 -0.00929852)
(-0.0240514 -0.142499 0.00080719)
(-0.031383 -0.185011 0.00104649)
(-0.0558867 -0.348434 0.00195225)
(-0.0502295 -0.313362 0.00174737)
(-0.0415017 -0.243843 0.00138692)
(-0.0340804 -0.200652 0.00113623)
(0.25125 2.14465 -0.0116113)
(0.238151 2.03193 -0.0110765)
(0.0238827 0.0882576 -0.000445409)
(0.0222368 0.0899109 -0.000491994)
(0.0337085 0.137166 -0.000504806)
(0.0319059 0.118153 -0.000622295)
(0.000950209 0.00288092 5.5151e-05)
(0.0241601 0.103174 -0.000424243)
(0.0334656 0.144575 -0.000682698)
(0.0190472 0.0843688 -0.000325009)
(0.0398862 0.147893 -0.000794941)
(0.0437153 0.178437 -0.000706478)
(0.0341741 0.126607 -0.000671714)
(0.0422032 0.633908 -0.00340292)
(-0.0020224 1.02304 -0.00542259)
(-0.00225452 1.1285 -0.00597847)
(0.0465426 0.699359 -0.00375885)
(-0.0549441 1.34546 -0.00707823)
(1.29458 0.857642 -0.0056309)
(-0.0574898 1.40746 -0.00740602)
(-0.0492932 1.20783 -0.00635418)
(-0.0537076 1.31537 -0.00692132)
(1.29092 0.855209 -0.00561483)
(-0.00231977 1.15728 -0.00612914)
(0.0508844 0.765713 -0.00410656)
(-0.0024481 1.21401 -0.00643044)
(0.0478703 0.71979 -0.0038395)
(0.224901 1.33291 -0.0070759)
(0.408495 2.54547 -0.0160796)
(0.235434 1.57263 -0.00861794)
(0.245753 1.45432 -0.00807175)
(0.401681 2.51052 -0.0136711)
(0.374462 2.33965 -0.0130127)
(0.194318 1.29482 -0.00846592)
(-0.0813025 -0.598805 0.00283977)
(-0.102025 -0.823093 0.00465933)
(-0.0668672 -0.445002 0.00248112)
(-0.0571787 -0.357129 0.00203002)
(-0.0800415 -0.537904 0.00289863)
(-0.053362 -0.334047 0.00193434)
(-0.0251438 -0.140089 0.0008325)
(-0.0452683 -0.266496 0.00154744)
(0.00116097 -0.000686703 0.00021939)
(-0.0478128 -0.282676 0.00167952)
(0.229769 1.03419 -0.00609214)
(0.178462 0.772658 -0.00432415)
(0.23719 1.11988 -0.00623484)
(0.176791 0.765654 -0.00429362)
(0.224665 1.01464 -0.0056749)
(0.239793 1.13149 -0.00674571)
(0.366127 1.7927 -0.0101481)
(0.104568 0.409423 -0.00225166)
(0.0889106 0.348037 -0.00194626)
(0.0943419 0.344588 -0.00188655)
(0.0747769 0.273004 -0.00152698)
(0.0864319 0.338365 -0.0019058)
(0.0807478 0.316181 -0.00179673)
(0.0547536 0.197786 -0.00108027)
(0.0421716 0.152245 -0.000851747)
(0.119501 0.277287 -0.00150417)
(0.101094 0.234466 -0.00123204)
(-0.0205808 -0.156433 0.000899416)
(-0.0181832 -0.130399 0.000752819)
(0.0803484 0.411555 -0.00256509)
(0.0849705 0.424941 -0.00231994)
(0.122707 0.649076 -0.00418834)
(-0.0190754 -0.189239 0.00099392)
(-0.0197584 -0.180784 0.00101801)
(-0.0169935 -0.187855 0.000739117)
(-0.0210108 -0.292748 0.00156274)
(0.0762876 0.36584 -0.00216193)
(0.0808708 0.404507 -0.00219912)
(-0.00475534 -0.0199989 0.000159833)
(0.00504607 0.0192701 5.04029e-06)
(-0.00153598 -0.00667888 0.000103251)
(0.0117179 0.0429334 -0.000165408)
(0.0172894 0.643397 -0.0033962)
(-0.00159574 0.843783 -0.00446377)
(0.0264673 0.562779 -0.00305453)
(0.0356545 0.536846 -0.00295358)
(-0.104597 0.990528 -0.00655212)
(-0.0413355 1.01591 -0.0053807)
(1.20627 0.806147 -0.00217312)
(-0.447586 1.45507 -0.00711305)
(-0.0452448 1.10984 -0.00585051)
(-0.139824 1.29655 -0.00671539)
(-0.0121302 -0.0634848 0.000409631)
(-0.0091276 -0.0470044 0.000313991)
(-0.0108737 -0.0557635 0.000366835)
(-0.0103852 -0.0545443 0.000357233)
(-0.0247094 -0.13589 0.000679021)
(0.000919209 0.0022955 0.381736)
(0.0577918 0.389891 -0.00214737)
(0.0908855 0.630969 -0.00357297)
(0.0596623 0.40221 -0.00227112)
(0.124705 0.455778 -0.00245041)
(0.151686 0.554687 -0.00298001)
(0.0718776 0.259809 -0.00139376)
(0.0609923 0.213699 -0.00115646)
(0.0799886 0.280758 -0.00169124)
(0.0879304 0.318033 -0.00172098)
(0.453144 -0.189221 -0.00230734)
(0.207795 0.190944 -0.000246856)
(0.255248 0.23756 -0.00114318)
(0.524312 -0.218568 -0.000526762)
(0.199628 0.86728 -0.00477454)
(0.586838 2.88057 -0.0155219)
(0.230725 1.00222 -0.00543396)
(0.563804 2.76755 -0.0150191)
(-0.0546409 -0.443217 0.000858182)
(0.00791068 0.0455419 -0.000104687)
(0.0080487 0.0463933 -8.92377e-05)
(0.260153 1.12862 -0.00220486)
(0.723125 3.54746 -0.00834687)
(0.255516 1.10861 -0.00261761)
(-0.0605783 -0.441702 0.00242052)
(0.186504 0.820742 -0.000875114)
(0.153293 0.708016 -0.000874756)
(0.186556 0.821065 -0.00101013)
(0.153287 0.707895 -0.000764869)
(0.0579848 0.212379 -0.000253842)
(0.0622707 0.228079 -0.000225141)
(-0.0256381 -0.188987 0.000233851)
(0.17726 0.878095 -0.00108886)
(0.0722185 0.380297 -0.000473575)
(0.0313468 0.113528 -0.00013433)
(0.0334822 0.121262 -0.000117598)
(1.39799 0.926769 -0.000447161)
(0.020338 0.0190888 -3.66286e-06)
(0.323278 -0.134183 1.86689e-05)
(0.0258914 0.0243194 -1.13028e-05)
(0.31994 -0.132739 1.09552e-05)
(-0.0154801 -0.0988294 0.000539322)
(-0.0190869 -0.121098 0.000663737)
(-0.0395007 -0.247124 0.00137147)
(-0.0927818 -0.748712 0.00407197)
(-0.0337579 -0.211671 0.0011717)
(0.185188 0.803465 -0.0045045)
(0.195053 0.846926 -0.00475119)
(0.101234 0.443903 -0.00238925)
(0.0761713 0.350313 -0.00187997)
(0.104959 0.460353 -0.00248071)
(0.0726257 0.333865 -0.00178765)
(0.0414086 0.189026 -0.000965869)
(0.0659023 0.287817 -0.00150016)
(0.0729132 0.318803 -0.00167936)
(0.0473861 0.216805 -0.00112755)
(0.0583835 0.213837 -0.00124937)
(0.0567176 0.207604 -0.00121322)
(0.0617306 0.225425 -0.00129481)
(0.0580752 0.212175 -0.00122979)
(0.0137847 0.0705836 -0.000355903)
(0.0675164 0.33181 -0.00175978)
(-0.0688203 -0.501424 0.00277092)
(0.022558 0.107798 -0.0004906)
(-0.00838844 -0.0470922 0.000310863)
(0.0298013 0.143994 -0.000701909)
(0.0317448 0.115014 -0.000677951)
(0.030329 0.109804 -0.000647461)
(0.0332722 0.120133 -0.000692756)
(0.0308196 0.111332 -0.000649375)
(1.30664 0.865645 -0.00568826)
(1.27332 0.843582 -0.00546755)
(0.125241 0.118041 -0.000743783)
(0.362846 -0.150537 0.00050023)
(0.37257 -0.15457 0.000515349)
(0.113449 0.106915 -0.000677585)
(0.471934 -0.195552 0.000600075)
(0.214358 0.202007 -0.00123738)
(0.200274 0.188797 -0.00116333)
(0.452517 -0.187612 0.000590788)
(0.000486179 0.0168011 -3.87639e-05)
(0.000495214 0.0175075 -5.50645e-05)
(-0.0454617 -0.448351 0.00148896)
(0.000329594 0.0054126 -1.90858e-05)
(0.000329947 0.00538644 -1.58724e-05)
(-0.0555916 -0.450814 0.00150256)
(-0.0473119 -0.466673 0.00210929)
(0.000325995 0.0052791 -2.11702e-05)
(0.000328191 0.00538846 -2.07866e-05)
(-0.0592424 -0.480137 0.00215323)
(-0.0596802 -0.483648 0.00219491)
(0.000261869 0.000640528 4.92064e-06)
(-0.0513714 -0.506543 0.00260184)
(0.000309304 0.00412123 -1.46684e-05)
(-0.0683755 -0.553337 0.00285523)
(1.37452 0.910798 -0.00586469)
(1.36895 0.907091 -0.00588646)
(1.3621 0.902525 -0.00589476)
(1.36883 0.907009 -0.00589044)
(0.196876 0.855303 -0.00472351)
(0.528338 2.59338 -0.0142261)
(0.558088 2.73948 -0.0149044)
(0.203917 0.885814 -0.00491256)
(0.179903 0.780188 -0.00438578)
(0.236383 1.06844 -0.00596761)
(0.267525 1.26429 -0.00700614)
(0.440163 2.15865 -0.0119246)
(0.18165 0.787879 -0.00442474)
(0.244714 1.10644 -0.0061635)
(0.25603 1.20967 -0.00672072)
(0.432253 2.11969 -0.0117261)
(1.40161 0.929303 -0.00267393)
(1.40197 0.929543 -0.0021146)
(1.40132 0.929059 -0.00141973)
(1.40224 0.929721 -0.00202804)
(0.506637 3.00449 -0.00413124)
(0.518408 3.07453 -0.00556484)
(0.00813922 0.0469365 -6.49141e-05)
(-0.0546321 -0.443168 0.000795785)
(0.00810162 0.0467196 -8.35862e-05)
(0.0312184 0.177952 -0.000414957)
(0.0314053 0.17903 -0.000348673)
(0.0315103 0.179624 -0.000249941)
(0.0314725 0.17942 -0.000324972)
(0.260402 1.12997 -0.00153276)
(0.260451 1.13009 -0.00203575)
(0.723057 3.54726 -0.00644977)
(-0.0548366 -0.36528 0.00201285)
(-0.0437933 -0.273625 0.00152062)
(-0.0645409 -0.470361 0.00258492)
(-0.0460128 -0.287326 0.00159811)
(-0.0600447 -0.39964 0.00220863)
(0.517837 4.43593 -0.00463111)
(0.524701 4.49352 -0.0039113)
(0.0863503 0.321135 -0.000213888)
(0.112885 0.463335 0.000270568)
(0.112994 0.463833 -0.00103804)
(0.0862439 0.320786 -0.000292263)
(0.149569 0.689932 -0.000574595)
(0.184975 0.813759 -0.00061094)
(0.185977 0.818328 -0.000744489)
(0.15266 0.704789 -0.000652259)
(0.112992 0.463834 0.000120677)
(0.0861175 0.320373 -0.000398006)
(0.112938 0.463648 -0.00118671)
(0.0862099 0.320677 -0.000321755)
(0.0640233 0.968511 -0.000605947)
(-0.00316151 1.41186 -0.000793882)
(-0.00315775 1.37872 -0.00114511)
(0.0639046 0.967548 -0.000851658)
(-0.0673379 1.63736 -0.00145842)
(1.40024 0.928295 -0.001012)
(-0.0669999 1.62858 -0.00185012)
(-0.0681485 1.65991 -0.000908372)
(-0.0675422 1.64293 -0.00132184)
(1.39975 0.92794 -0.000887505)
(-0.00315648 1.36916 -0.00123928)
(0.0596174 0.90357 -0.00109101)
(-0.00316104 1.35643 -0.00156674)
(0.0630392 0.954869 -0.000911237)
(0.322968 1.4612 -0.0010596)
(0.259238 1.12503 -0.00101398)
(0.657868 3.2276 -0.00335503)
(0.405242 1.91589 -0.00231127)
(0.34773 1.64424 -0.00118965)
(0.637777 3.12893 -0.00287017)
(0.260665 1.13119 -0.00120062)
(0.36692 1.65976 -0.00199047)
(0.0845858 0.332169 -0.000248791)
(0.0761899 0.299081 -0.000289501)
(0.0702517 0.257406 -0.000177171)
(0.063939 0.234211 -0.000211347)
(0.0739126 0.290118 -0.000300547)
(0.733425 4.58884 -0.00390757)
(0.460752 2.73162 -0.00253612)
(0.758613 4.74773 -0.00438694)
(0.481527 3.22119 -0.00345286)
(0.478112 3.19751 -0.00291461)
(0.479288 2.84183 -0.00299243)
(-0.0242642 -0.179561 0.000148105)
(-0.0110959 -0.0767481 9.60473e-05)
(0.00823492 0.0474132 -5.15762e-05)
(-0.0106097 -0.0741745 6.082e-05)
(0.00821021 0.0470782 -4.38949e-05)
(0.0713458 0.375106 -0.000293348)
(0.174653 0.864203 -0.000672026)
(0.177172 0.877257 -0.00081604)
(0.057307 0.30941 -0.000386546)
(0.0315828 0.179933 -0.000197861)
(0.0571502 0.307995 -0.000245097)
(0.0315516 0.179578 -0.000169666)
(0.0376968 0.136595 -9.274e-05)
(0.0343729 0.124506 -0.00011071)
(0.0655657 0.239384 -0.00136315)
(0.0679556 0.248092 -0.0014054)
(0.031825 0.111393 -0.000640633)
(0.0358796 0.129527 -0.000739187)
(0.0375722 0.131512 -0.000740866)
(0.0375208 0.135446 -0.000768268)
(0.280503 0.82375 -0.000432038)
(0.280633 0.82395 -0.000247685)
(0.289721 0.673351 -0.000272521)
(0.289621 0.673074 -0.000218693)
(-0.203268 1.88247 -0.000369679)
(-0.0669395 1.63319 -0.000492852)
(1.39732 0.926672 -0.000425335)
(-0.891795 2.8992 -0.00112542)
(-0.0677143 1.6511 -0.000634989)
(-0.208205 1.92606 -0.000843092)
(0.0729005 0.267315 -0.000120482)
(0.0734807 0.269464 -6.56704e-05)
(0.0401447 0.145605 -6.28058e-05)
(0.0350396 0.123173 -7.12349e-05)
(0.0350749 0.123333 -8.97925e-06)
(0.0404608 0.146766 -2.97414e-05)
(0.412414 2.44582 -0.013226)
(0.377995 2.24115 -0.0121563)
(0.00533835 0.0279171 -0.000133782)
(0.00142272 0.00521148 -1.16474e-05)
(-0.0248758 -0.156836 0.000864161)
(-0.0206266 -0.130603 0.000716694)
(-0.0049509 -0.0317462 0.000190751)
(-0.00029918 -0.00477253 4.25809e-05)
(1.34285 0.889725 -0.00584718)
(1.35321 0.89661 -0.00588098)
(1.36176 0.902302 -0.00589523)
(1.35465 0.897573 -0.00588465)
(-0.0213687 -0.126944 0.000720127)
(-0.0148885 -0.0893691 0.000509944)
(0.345806 2.04951 -0.0111397)
(0.368612 2.18527 -0.0118555)
(-0.0909631 -0.73416 0.00398778)
(-0.0266875 -0.16802 0.000926653)
(-0.0317007 -0.198972 0.0011005)
(-0.00699688 -0.0436094 0.000256059)
(-0.0125374 -0.0757374 0.000434212)
(0.202517 0.879581 -0.0049277)
(0.513678 2.52121 -0.0138566)
(0.20748 0.901257 -0.00500517)
(0.485656 2.3828 -0.0131093)
(0.281037 2.39982 -0.0130065)
(0.289478 2.4723 -0.0134075)
(0.0645817 0.264362 -0.00108685)
(0.0521751 0.193696 -0.00105588)
(0.0550751 0.204503 -0.00111645)
(0.0605311 0.247683 -0.00165341)
(0.0960367 0.420949 -0.00226038)
(0.0637011 0.292483 -0.00155623)
(0.0914855 0.400851 -0.00214628)
(0.0679099 0.311996 -0.00166647)
(0.0585017 0.217274 -0.0011876)
(0.0560455 0.208119 -0.00113717)
(0.0695784 0.284939 -0.00117526)
(-0.00282634 1.37921 -0.00729725)
(0.0572456 0.861943 -0.00461536)
(0.0585877 0.88225 -0.00472169)
(-0.00276182 1.35132 -0.0071515)
(-0.0649568 1.5892 -0.00835084)
(1.33895 0.887129 -0.00583262)
(-0.0657598 1.60866 -0.00844951)
(-0.00284887 1.38889 -0.00734486)
(0.0601225 0.905501 -0.00484081)
(-0.00288616 1.40333 -0.0074177)
(0.0590363 0.889043 -0.00475685)
(-0.0644998 1.57808 -0.0082962)
(1.33573 0.884991 -0.00581923)
(-0.0632466 1.54759 -0.00813762)
(0.315568 2.69579 -0.0145659)
(0.309551 2.6442 -0.0142974)
(0.0416919 0.154625 -0.000833772)
(0.0460043 0.170698 -0.000925549)
(0.0538789 0.220292 -0.00146276)
(0.050935 0.189074 -0.00102972)
(0.0586714 0.240026 -0.000980846)
(0.0474625 0.176132 -0.000956148)
(0.0796901 0.348745 -0.00185139)
(0.058122 0.266614 -0.00141084)
(0.085052 0.372435 -0.00198624)
(0.0532516 0.244024 -0.00128246)
(-0.0581963 1.42459 -0.00749806)
(-0.0605011 1.48078 -0.00778944)
(1.31505 0.871253 -0.00572937)
(0.0517342 0.778603 -0.00417667)
(-0.00248837 1.23028 -0.00651841)
(-0.00261273 1.28646 -0.00681165)
(0.0540914 0.814225 -0.00436503)
(-0.00265019 1.30293 -0.00689837)
(0.056668 0.853183 -0.00457057)
(0.054897 0.826407 -0.00442809)
(-0.00273293 1.33937 -0.0070913)
(-0.0611884 1.49752 -0.00787712)
(1.31923 0.874029 -0.00574611)
(-0.0627392 1.53527 -0.00807609)
(0.0761104 0.298525 -0.00171097)
(0.0761441 0.298536 -0.00171228)
(0.0560391 0.204948 -0.00119661)
(0.0563186 0.206101 -0.00120466)
(0.0770256 0.30228 -0.00173092)
(0.24042 1.13541 -0.00632566)
(0.403179 1.97632 -0.0109817)
(0.226127 1.02146 -0.00571731)
(0.175447 0.76038 -0.00429046)
(0.176538 0.765256 -0.00431279)
(0.233414 1.05489 -0.00589569)
(0.410928 2.01462 -0.0111601)
(0.251865 1.18989 -0.00661677)
(0.0772414 0.302613 -0.00173207)
(0.0769344 0.30146 -0.00172689)
(0.0761075 0.298349 -0.00171121)
(0.0560635 0.204992 -0.00119642)
(0.0573484 0.20956 -0.00121742)
(0.261679 1.74791 -0.00954143)
(0.416442 2.60315 -0.0142406)
(0.273999 1.62286 -0.00889613)
(0.280734 1.66288 -0.00911264)
(0.447651 2.79866 -0.0152821)
(0.437781 2.73691 -0.0149563)
(0.268541 1.79388 -0.0097765)
(-0.00171206 -0.012056 9.66731e-05)
(-0.0263305 -0.155716 0.000881163)
(0.0503366 0.246297 -0.00128188)
(0.00522066 0.0251905 -0.000101861)
(-0.0289701 -0.171021 0.0009673)
(-0.00991527 -0.0567457 0.000347507)
(-0.0660574 -0.43945 0.00244369)
(-0.0540968 -0.337287 0.00188641)
(-0.0658157 -0.479572 0.00263945)
(-0.052223 -0.325679 0.00181715)
(-0.0617755 -0.411067 0.00227538)
(0.458916 2.86927 -0.015656)
(0.468134 2.92705 -0.0159582)
(0.292064 1.95149 -0.010605)
(0.286184 1.9121 -0.0103985)
(-0.0222381 -0.12404 0.000733637)
(-0.0390431 -0.229485 0.00130141)
(0.0434229 0.211879 -0.00108771)
(0.0017642 0.00686638 1.23448e-06)
(0.036975 0.17976 -0.000907004)
(-0.0365434 -0.214949 0.00121683)
(-0.0131032 -0.0741166 0.000445712)
(0.0295699 0.106946 -0.000629862)
(0.0299824 0.108521 -0.000640013)
(0.0295518 0.106853 -0.0006289)
(0.0303295 0.109585 -0.000641085)
(0.116528 0.341533 -0.00184462)
(0.142279 0.417226 -0.00228794)
(0.18831 0.437275 -0.00246075)
(0.183017 0.424974 -0.00239008)
(0.155893 0.361937 -0.00202405)
(0.163959 0.380692 -0.00213647)
(0.149251 0.437726 -0.00240701)
(-0.590983 1.92267 -0.00966675)
(1.3012 0.862031 -0.0056598)
(-0.0567417 1.38925 -0.00731043)
(-0.16797 1.55663 -0.00809967)
(-0.563626 1.83383 -0.00928059)
(-0.494858 1.60951 -0.00800086)
(-0.512705 1.6679 -0.00839424)
(-0.145135 1.34573 -0.00700132)
(-0.0508181 1.24499 -0.00654723)
(1.28365 0.850365 -0.00555944)
(-0.546606 1.77859 -0.0089491)
(0.0866335 0.316359 -0.00174031)
(0.079883 0.291687 -0.00162088)
(0.138262 0.130327 -0.000816815)
(0.397774 -0.165028 0.000553609)
(0.38447 -0.159506 0.000533685)
(0.15173 0.143034 -0.000890283)
(0.0534119 0.187083 -0.00101965)
(0.0499409 0.180348 -0.000990144)
(0.0454966 0.164273 -0.000912058)
(0.040249 0.140889 -0.000787355)
(0.181949 0.171538 -0.00106016)
(0.414133 -0.171805 0.000567303)
(0.431415 -0.178938 0.000583344)
(0.167007 0.157448 -0.000974114)
(0.718807 3.52622 -0.00874514)
(0.255707 1.10939 -0.00275427)
(0.260494 1.13012 -0.00322317)
(0.703377 3.45046 -0.00978035)
(0.256147 1.11178 -0.0047907)
(0.678341 3.32812 -0.013528)
(0.256503 1.1132 -0.004555)
(0.680187 3.33738 -0.0142769)
(0.250723 1.08873 -0.00555931)
(0.67584 3.31679 -0.016442)
(0.251907 1.09377 -0.00546112)
(0.678883 3.33187 -0.0168781)
(-0.0546649 -0.443385 0.000975794)
(-0.0256855 -0.18922 0.000441984)
(-0.042174 -0.30857 0.00164628)
(-0.05906 -0.430721 0.00235788)
(-0.0961549 -0.775702 0.00422754)
(-0.0457699 -0.451434 0.00166389)
(-0.00441298 -0.135199 0.000532153)
(-0.00439884 -0.134714 0.000489885)
(0.000496003 0.0176876 -6.73579e-05)
(0.000495133 0.0175137 -5.55842e-05)
(0.0077811 0.0447427 -0.0001082)
(-0.0549484 -0.445655 0.00124838)
(0.00750847 0.0430607 -0.000118917)
(-0.0562852 -0.456393 0.0016888)
(0.00515209 0.028524 -0.000108423)
(0.00585616 0.0328684 -0.000118372)