/*--------------------------------*- C++ -*----------------------------------*\
| =========                 |                                                 |
| \\      /  F ield         | OpenFOAM: The Open Source CFD Toolbox           |
|  \\    /   O peration     | Version:  2306                                  |
|   \\  /    A nd           | Website:  www.openfoam.com                      |
|    \\/     M anipulation  |                                                 |
\*---------------------------------------------------------------------------*/
FoamFile
{
    version     2.0;
    format      ascii;
    arch        "LSB;label=32;scalar=64";
    class       volScalarField;
    location    "0.05";
    object      p;
}
// * * * * * * * * * * * * * * * * * * * * * * * * * * * * * * * * * * * * * //

dimensions      [0 2 -2 0 0 0 0];

internalField   nonuniform List<scalar> 
111542
(
62.4209
63.8161
67.1503
72.5968
80.2369
90.2955
102.953
118.26
135.744
153.978
170.356
180.722
180.738
168.799
147.673
123.062
99.2477
78.149
60.1628
45.2603
33.2268
24.0127
17.3439
12.6049
9.26251
6.89051
5.1486
3.85214
2.93261
2.25242
1.72402
1.29473
0.986517
0.744419
0.537661
0.35197
0.170295
0.0337988
-0.0998325
-0.252911
61.1832
62.5319
65.8203
71.1861
78.7932
88.9741
102.127
118.54
138.088
159.731
180.741
195.548
196.075
180.358
153.767
124.964
98.7122
76.3048
57.7168
42.5856
30.6332
21.965
15.9181
11.7155
8.68872
6.56729
4.91691
3.72703
2.86644
2.21772
1.71109
1.30911
0.995853
0.745008
0.535679
0.354881
0.19373
0.0516904
-0.0881916
-0.241086
58.7381
60.0077
63.1273
68.2705
75.7136
85.9864
99.8383
118.139
141.643
170.318
200.929
224.931
227.388
203.28
166.305
130.375
99.7161
74.8647
55.0318
39.0037
26.0036
17.4065
12.2794
9.10917
6.49415
4.90252
3.60472
2.67483
2.03095
1.56351
1.20823
0.931516
0.71316
0.53684
0.38865
0.258399
0.138689
0.0238838
-0.0935418
-0.222399
55.1598
56.2856
59.0718
63.7389
70.6763
80.6333
94.8049
114.977
143.719
184.56
221.92
267.981
278.011
240.071
187.186
142.459
104.945
76.1779
54.4853
37.5512
19.6107
11.2579
7.92132
6.77697
5.8325
4.2778
3.32977
2.69334
2.18945
1.76317
1.39742
1.08836
0.832279
0.622273
0.449762
0.30553
0.180902
0.0679496
-0.0425458
-0.163188
50.5908
51.487
53.7241
57.5383
63.3717
72.0869
85.1707
105.135
136.187
182.696
262.629
354.627
386.938
285.704
198.717
140.458
94.0874
63.1644
42.2068
27.0372
15.4845
-0.0727676
0.968327
1.66617
1.15624
0.597498
0.335118
0.268703
0.262181
0.25957
0.248205
0.228313
0.202271
0.170965
0.135485
0.0965642
0.0539095
0.00639508
-0.0486404
-0.114739
45.268
45.8426
47.2949
49.819
53.7892
59.9449
69.6347
85.3599
111.997
168.05
264.3
465.328
645.979
289.935
211.923
132.29
76.1491
45.4705
26.7989
13.1331
0.343778
-11.2672
-4.17633
-2.07088
-1.6413
-0.579824
0.303486
0.787733
0.954731
0.926493
0.805192
0.655323
0.510503
0.384499
0.281532
0.200404
0.136857
0.0860366
0.041339
-0.0105312
39.5312
39.7097
40.186
41.051
42.4769
44.7885
48.5505
54.7153
64.9184
104.405
180.052
409.737
1979.34
-360.607
244.182
81.362
32.0454
15.5721
6.97147
-1.36985
-2.76088
10.4432
6.92823
1.26202
-1.47208
-2.07493
-1.87904
-1.43207
-1.02983
-0.73329
-0.517972
-0.360567
-0.246085
-0.162841
-0.101782
-0.0557728
-0.0191367
0.0127859
0.0464632
0.095965
33.8066
33.5599
32.9826
32.0366
30.639
28.5903
25.4394
20.1499
10.1493
11.1564
-9.09305
-181.425
-1054.34
-1098.46
-325.48
-106.424
-48.9923
-27.6349
-17.7409
-11.1114
-5.06185
-5.53872
-5.57837
-4.73822
-3.47405
-2.09875
-1.49342
-0.870009
-0.471345
-0.257783
-0.141306
-0.0762531
-0.039711
-0.0169946
0.00143041
0.02129
0.0467218
0.0807414
0.126706
0.188497
28.5385
27.9071
26.3444
23.7138
19.7345
13.8218
4.9049
-8.99469
-31.6639
-56.5664
-134.152
-285.791
-504.448
-531.471
-334.716
-182.474
-104.649
-63.7717
-40.8033
-26.0386
-15.3927
-10.3659
-8.72476
-7.11762
-5.86397
-5.09155
-3.78288
-2.84934
-2.17816
-1.64876
-1.23107
-0.905606
-0.654308
-0.460602
-0.309389
-0.187355
-0.08242
0.0151034
0.114244
0.226158
24.1807
23.2258
20.8586
16.8842
10.9122
2.19541
-10.5075
-29.2202
-57.3013
-100.444
-160.797
-236.112
-304.584
-311.181
-248.952
-171.796
-114.095
-77.3026
-53.5082
-36.9461
-24.9965
-16.7464
-12.4969
-9.66935
-7.39866
-5.58816
-3.97409
-2.98277
-2.19562
-1.60144
-1.16671
-0.846109
-0.606534
-0.424571
-0.28259
-0.164635
-0.0578929
0.0459345
0.154192
0.274519
21.0704
19.8833
16.9723
12.0976
4.83808
-5.54516
-20.1789
-40.5832
-68.6578
-106.302
-153.534
-205.059
-243.01
-248.788
-215.656
-163.983
-117.528
-83.8457
-60.3076
-43.2502
-30.7106
-21.8389
-16.0913
-12.1909
-9.29214
-7.08965
-5.43664
-4.02827
-3.00683
-2.24746
-1.67088
-1.23095
-0.893643
-0.633264
-0.436573
-0.270528
-0.122926
0.0125732
0.145298
0.286944
19.4532
18.1648
14.9596
9.65809
1.7665
-9.35652
-24.7415
-45.5401
-72.8995
-107.113
-146.498
-185.222
-213.15
-218.252
-196.571
-158.277
-118.972
-87.3393
-63.98
-46.6638
-33.7251
-24.2747
-17.6505
-13.0613
-9.80711
-7.39271
-5.54827
-4.14503
-3.08626
-2.29288
-1.69635
-1.24457
-0.897485
-0.619708
-0.447004
-0.279904
-0.123653
0.018567
0.15426
0.286473
61.9124
63.2547
66.5202
71.8104
79.2194
88.9603
101.24
116.061
132.944
150.546
166.338
176.227
175.971
164.198
143.586
119.617
96.5008
76.0267
58.5841
44.11
32.4552
23.5047
16.9741
12.3667
9.11522
6.7626
5.07081
3.81251
2.89482
2.2148
1.69497
1.28959
0.977768
0.730006
0.523525
0.344475
0.183756
0.04097
-0.100332
-0.25351
60.6844
61.9937
65.193
70.4032
77.7814
87.6478
100.389
116.273
135.179
156.126
176.47
190.977
190.857
175.341
149.426
121.434
95.958
74.2258
56.2038
41.5315
29.9381
21.489
15.5737
11.4789
8.54066
6.44073
4.82382
3.662
2.81625
2.17805
1.6819
1.29045
0.981231
0.732491
0.526326
0.350025
0.194414
0.0527037
-0.0874047
-0.238108
58.2636
59.4957
62.5235
67.5125
74.7261
84.6744
98.0821
115.793
138.549
166.334
195.979
218.986
221.553
197.871
161.756
126.781
96.9803
72.8573
53.6243
38.09
25.5019
17.0779
12.0192
8.92853
6.47679
4.82843
3.54974
2.64267
2.01066
1.54903
1.19745
0.923667
0.707336
0.531959
0.384706
0.255891
0.138083
0.0249187
-0.0913351
-0.218581
54.723
55.813
58.5118
63.0311
69.7452
79.3785
93.0913
112.627
140.516
180.259
218.025
263.22
272.939
235.387
183.58
139.622
102.768
74.5733
53.3469
36.7971
19.04
10.9009
7.64675
6.47535
5.46285
4.0629
3.17803
2.581
2.10762
1.7036
1.35436
1.0577
0.810744
0.607034
0.439113
0.298388
0.176716
0.0661944
-0.0423206
-0.160794
50.2049
51.0692
53.2291
56.9123
62.5461
70.9676
83.6283
102.994
133.225
179.714
258.591
349.405
381.085
280.929
196.103
138.272
92.3292
61.8448
41.2569
26.3595
14.9366
-0.719128
0.756909
1.66142
1.19208
0.649211
0.383482
0.308815
0.29032
0.276526
0.257357
0.232621
0.203564
0.170673
0.134486
0.0953478
0.0530134
0.00613091
-0.0481128
-0.113189
44.9448
45.4936
46.8854
49.3076
53.1235
59.0546
68.4264
83.7151
109.783
165.781
261.765
461.529
641.063
288.077
213.699
131.274
75.1055
44.6185
26.1812
12.6759
-0.219987
-12.4917
-5.08523
-2.82385
-2.11008
-0.939749
0.0517167
0.619776
0.84053
0.84817
0.751655
0.618781
0.485336
0.36741
0.269477
0.191938
0.13105
0.0821503
0.0389491
-0.0113889
39.277
39.4384
39.8763
40.6788
42.0144
44.2037
47.8116
53.8091
63.9027
103.458
179.404
410.793
1971.7
266.92
80.4348
31.784
15.3301
6.776
-1.47785
-2.78555
11.0848
7.43724
1.78156
-1.14122
-1.92022
-1.76956
-1.37134
-1.00321
-0.72354
-0.516122
-0.362269
-0.249219
-0.166196
-0.105046
-0.058749
-0.0219145
0.0101844
0.0438438
0.0930384
33.6259
33.37
32.7779
31.8127
30.396
28.3392
25.2156
20.0475
10.3884
11.6367
-7.72457
-176.32
-1035.87
-1091.56
-319.264
-104.383
-47.7131
-27.0336
-17.523
-10.9977
-4.80851
-5.43562
-5.75739
-4.99997
-3.79634
-2.46728
-1.64923
-0.978223
-0.556124
-0.320743
-0.187172
-0.109335
-0.0635182
-0.0339897
-0.0108307
0.0123695
0.0398746
0.0749897
0.121371
0.182978
28.42
27.7948
26.2404
23.6297
19.695
13.8727
5.13264
-8.4321
-30.4984
-55.1768
-131.162
-280.569
-496.692
-521.778
-328.617
-178.538
-102.198
-62.358
-40.026
-25.6174
-15.1449
-10.364
-8.74343
-7.08081
-5.75923
-4.82423
-3.69299
-2.81405
-2.15622
-1.63666
-1.22592
-0.904561
-0.655534
-0.462937
-0.312194
-0.190196
-0.0855521
0.0113014
0.109501
0.219925
24.1205
23.1744
20.8377
16.9143
11.0342
2.47846
-9.95217
-28.2146
-55.5734
-97.6119
-156.482
-230.206
-296.939
-303.06
-242.033
-166.842
-110.908
-75.3748
-52.3842
-36.3333
-24.7146
-16.6748
-12.4654
-9.63381
-7.36453
-5.54267
-3.95228
-2.99634
-2.20986
-1.61539
-1.17985
-0.857769
-0.616715
-0.433355
-0.289616
-0.170044
-0.0628476
0.0406758
0.148274
0.267404
21.0524
19.884
17.0098
12.203
5.06859
-5.11508
-19.4336
-39.357
-66.72
-103.368
-149.287
-199.154
-236.362
-241.978
-209.561
-159.337
-114.327
-81.7668
-58.9952
-42.4509
-30.2536
-21.5958
-15.9443
-12.0866
-9.21156
-7.03441
-5.4632
-4.00454
-2.98936
-2.23801
-1.66632
-1.23012
-0.895884
-0.637896
-0.43706
-0.270978
-0.125687
0.0081046
0.140049
0.2813
19.4612
18.1808
15.0313
9.78858
2.05194
-8.86149
-23.9178
-44.2407
-70.8921
-104.221
-142.535
-180.155
-207.341
-212.312
-191.208
-153.92
-115.782
-85.1791
-62.5643
-45.7653
-33.1722
-23.9464
-17.4563
-12.9536
-9.73032
-7.3311
-5.48114
-4.12019
-3.07283
-2.28561
-1.69394
-1.24627
-0.90475
-0.641505
-0.442551
-0.274265
-0.124123
0.0142276
0.14955
0.292002
60.9205
62.1849
65.2709
70.2557
77.2218
86.3614
97.8602
111.695
127.402
143.727
158.256
167.182
166.478
155.037
135.411
112.762
91.0125
71.7826
55.4107
41.8235
30.8807
22.4424
16.2435
11.8646
8.77792
6.54083
4.90985
3.70146
2.81278
2.1527
1.65067
1.26104
0.955105
0.710881
0.509979
0.338069
0.184909
0.042546
-0.0981229
-0.246573
59.7158
60.9485
63.9646
68.8683
75.7984
85.0457
96.961
111.779
129.376
148.827
167.682
180.897
180.332
165.335
140.732
114.356
90.4278
70.038
53.1383
39.3864
28.5194
20.5164
14.8723
10.9806
8.2038
6.17309
4.64144
3.53168
2.71851
2.10414
1.62735
1.25133
0.951919
0.710277
0.510857
0.341077
0.191077
0.0522446
-0.0849942
-0.230806
57.3428
58.4993
61.3452
66.0293
72.7895
82.0942
94.6121
111.126
132.338
158.251
185.89
207.248
209.245
186.456
152.243
119.321
91.3263
68.7041
50.6961
36.1867
24.5121
16.4349
11.4717
8.52475
6.29325
4.68091
3.45011
2.58078
1.96921
1.51872
1.1746
0.906498
0.694008
0.521505
0.377001
0.251093
0.136292
0.0257804
-0.0877199
-0.211222
53.8759
54.8941
57.4199
61.6468
67.9179
76.9041
89.6885
107.913
133.99
171.314
208.445
251.497
260.363
223.873
174.408
132.583
97.4624
70.7021
50.6221
35.0155
18.128
10.4756
7.20962
5.98064
4.92921
3.6989
2.90276
2.36905
1.94734
1.58382
1.26651
0.994568
0.765887
0.575563
0.417476
0.284149
0.168257
0.0623589
-0.0421069
-0.156038
49.4578
50.258
52.2651
55.6883
60.923
68.7511
80.5407
98.637
127.052
172.337
248.229
335.71
365.814
268.29
187.87
132.238
87.7696
58.5266
38.9196
24.7523
13.8202
-1.70659
0.609342
1.93855
1.38517
0.786376
0.506899
0.40683
0.356737
0.317862
0.28206
0.246804
0.21074
0.173657
0.135348
0.0952278
0.0528548
0.00668054
-0.0463957
-0.109681
44.3207
44.8184
46.0901
48.3089
51.8134
57.2835
65.9839
80.3005
104.991
159.772
253.928
449.723
624.258
276.861
210.824
128.32
72.3254
42.3728
24.5235
11.422
-2.01985
-15.9102
-7.43087
-4.39427
-3.28668
-1.88398
-0.619934
0.154298
0.516173
0.624425
0.599897
0.51722
0.417415
0.321923
0.23982
0.172315
0.118114
0.0737884
0.0339603
-0.0130209
38.7895
38.9188
39.2804
39.9567
41.1067
43.0379
46.2989
51.8712
61.5392
100.578
176.367
408.739
1946.03
275.244
82.0608
31.4028
14.4236
5.90012
-2.00952
-2.6123
12.5932
8.42681
2.4179
-0.566885
-1.47778
-1.44482
-1.1572
-0.864078
-0.63142
-0.455124
-0.322682
-0.223889
-0.150947
-0.096515
-0.0546599
-0.0208284
0.00922334
0.0411977
0.088294
33.2776
33.0123
32.3922
31.3872
29.927
27.8399
24.744
19.7639
10.6892
12.4071
-4.88316
-165.925
-1016.9
-1070.98
-305.378
-97.3651
-44.6353
-25.9504
-17.2939
-11.0165
-4.67206
-5.47055
-6.28586
-5.62237
-4.31102
-2.93196
-1.90915
-1.15406
-0.680398
-0.407215
-0.247314
-0.151691
-0.0929628
-0.0547293
-0.0260736
0.000792523
0.0303832
0.0663126
0.112459
0.172809
28.2129
27.5879
26.0499
23.4809
19.6331
13.9849
5.58567
-7.3371
-28.2041
-51.8719
-124.121
-267.655
-476.988
-501.358
-313.107
-168.74
-96.6244
-59.3817
-38.5053
-24.894
-14.9097
-10.695
-8.92143
-7.04794
-5.60645
-4.54901
-3.55726
-2.71904
-2.07953
-1.57988
-1.18646
-0.878302
-0.638663
-0.452693
-0.307006
-0.188665
-0.0870931
0.0068823
0.102033
0.208506
24.0202
23.0932
20.8128
16.9943
11.2984
3.05909
-8.83614
-26.2072
-52.1079
-91.819
-147.441
-217.256
-280.576
-286.319
-228.224
-157.203
-104.819
-71.7135
-50.239
-35.1579
-24.2138
-16.668
-12.4475
-9.56215
-7.31131
-5.5154
-4.03501
-3.01781
-2.22025
-1.6257
-1.18952
-0.866569
-0.62461
-0.440453
-0.295995
-0.176202
-0.0698119
0.0321735
0.137653
0.253507
21.0337
19.896
17.1008
12.4395
5.55092
-4.23661
-17.9282
-36.8876
-62.8181
-97.4407
-140.733
-187.656
-222.961
-228.279
-197.622
-150.312
-108.132
-77.7119
-56.3937
-40.8332
-29.3127
-21.0925
-15.6224
-11.8398
-9.01622
-6.87005
-5.25749
-3.92327
-2.94003
-2.20302
-1.64319
-1.21612
-0.888484
-0.634697
-0.434978
-0.27135
-0.129614
0.00097331
0.130093
0.267519
19.4835
18.2376
15.181
10.1006
2.63938
-7.84464
-22.2399
-41.5872
-66.8559
-98.3678
-134.521
-170.037
-195.571
-200.264
-180.409
-145.365
-109.608
-80.9667
-59.762
-43.9474
-32.0396
-23.2717
-17.0496
-12.6865
-9.53986
-7.19784
-5.41895
-4.06457
-3.03643
-2.26321
-1.68106
-1.24043
-0.904245
-0.644698
-0.441164
-0.274501
-0.12898
0.00585493
0.13901
0.279217
59.5064
60.6613
63.4831
68.0318
74.3667
82.6428
93.0037
105.397
119.372
133.77
146.385
153.8
152.572
141.665
123.517
102.843
83.1098
65.6945
50.8688
38.5604
28.6399
20.9546
15.2506
11.1803
8.30629
6.2241
4.68696
3.54782
2.70608
2.07663
1.5959
1.22173
0.926236
0.689447
0.494775
0.328863
0.181468
0.0438952
-0.0920824
-0.234443
58.3353
59.4584
62.2099
66.6743
72.9617
81.3149
92.0247
105.27
120.908
138.075
154.556
165.528
164.592
150.478
127.902
103.991
82.3908
63.9874
48.7267
36.3138
26.5155
19.1936
13.9398
10.289
7.70493
5.79009
4.37706
3.34685
2.58569
2.00729
1.55654
1.19964
0.913915
0.682475
0.491309
0.328651
0.184863
0.0513549
-0.0804966
-0.219595
56.0308
57.079
59.6633
63.909
70.015
78.383
89.5887
104.306
123.137
146.069
170.42
189.196
189.829
168.521
137.469
107.878
82.7587
62.4653
46.3197
33.372
23.1452
15.6575
10.761
7.93207
5.95573
4.47031
3.32635
2.51171
1.92756
1.49036
1.15357
0.890056
0.680557
0.510599
0.368712
0.245695
0.134037
0.0270091
-0.0822902
-0.200375
52.6696
53.5848
55.8618
59.6664
65.293
73.3262
84.7157
100.912
124.075
157.294
192.506
231.514
238.543
204.006
158.739
120.752
88.713
64.4106
46.2407
32.2281
17.2166
10.4606
6.61478
5.04626
4.0852
3.16787
2.55479
2.12903
1.77734
1.46162
1.17807
0.930312
0.718914
0.541493
0.393193
0.26749
0.157922
0.0575648
-0.0414197
-0.148843
48.3945
49.1037
50.8902
53.9355
58.5834
65.523
75.9707
92.0259
117.342
159.821
229.618
310.547
336.799
244.133
171.748
120.749
79.4164
52.6057
34.8307
22.0955
12.5228
-1.88862
0.806809
2.17435
1.54221
0.889349
0.636035
0.509023
0.417146
0.349031
0.295936
0.251273
0.208959
0.169275
0.130513
0.0908763
0.0496636
0.00514206
-0.0451934
-0.105026
43.4337
43.8596
44.9574
46.8782
49.9187
54.6844
62.3094
74.9693
97.0791
148.764
238.265
424.842
588.981
251.142
201.085
120.275
65.7465
37.305
20.8209
8.70371
-5.90734
-22.9618
-11.4707
-6.04518
-4.08979
-2.39106
-0.871408
0.0079636
0.408857
0.539589
0.53229
0.46518
0.374868
0.289099
0.215427
0.15373
0.10446
0.0640764
0.0278408
-0.0147136
38.1037
38.1851
38.4354
38.9252
39.7937
41.3139
43.9835
48.7328
57.3195
94.5308
168.211
397.948
1896.35
288.236
81.313
28.222
10.888
2.83145
-4.09402
-3.1671
14.6837
9.52973
2.81231
-0.323885
-1.33376
-1.447
-1.22289
-0.943006
-0.704084
-0.514857
-0.366085
-0.255473
-0.174248
-0.113633
-0.0675859
-0.0311182
0.000308603
0.0326212
0.0788349
32.7999
32.5126
31.8519
30.7866
29.2529
27.0945
23.9809
19.1619
10.7477
12.8113
-1.84634
-150.28
-959.686
-1019.78
-279.763
-87.4522
-41.6368
-25.858
-18.1891
-12.0059
-5.27466
-6.62395
-7.34349
-6.43054
-4.89679
-3.39666
-2.2948
-1.46417
-0.917512
-0.582984
-0.376119
-0.245165
-0.159742
-0.102769
-0.0606464
-0.0245496
0.0108868
0.049924
0.0969351
0.156562
27.9213
27.3076
25.7961
23.2848
19.5539
14.1393
6.20006
-5.82245
-24.9529
-46.8122
-112.987
-245.666
-440.768
-462.683
-286.068
-153.512
-88.7215
-55.5369
-36.772
-24.3337
-15.2627
-11.9059
-9.302
-6.8789
-5.35945
-4.34196
-3.47508
-2.69967
-2.08245
-1.59345
-1.20438
-0.896539
-0.654893
-0.467114
-0.319712
-0.200166
-0.0983499
-0.00535413
0.0874522
0.190014
23.8933
22.9945
20.7938
17.1274
11.6944
3.90399
-7.2296
-23.3145
-47.0601
-83.1884
-133.653
-196.996
-254.344
-259.455
-206.879
-142.952
-96.1301
-66.5751
-47.2633
-33.5779
-23.6279
-16.8095
-12.4284
-9.39312
-7.18995
-5.4864
-4.11286
-3.07056
-2.27065
-1.67518
-1.23365
-0.903761
-0.655024
-0.465249
-0.316149
-0.193264
-0.0854685
0.0162858
0.119892
0.232162
21.0208
19.9288
17.2469
12.7976
6.26166
-2.9579
-15.7503
-33.3132
-57.1399
-88.7349
-128.033
-170.47
-202.537
-207.371
-179.692
-137.122
-99.2916
-71.9872
-52.7265
-38.5534
-27.9965
-20.4057
-15.1849
-11.4864
-8.73459
-6.65681
-5.07161
-3.83416
-2.89362
-2.17879
-1.63319
-1.21488
-0.89231
-0.641312
-0.442619
-0.280061
-0.140204
-0.012156
0.113599
0.246155
19.5285
18.3328
15.4134
10.5749
3.50733
-6.35954
-19.811
-37.7511
-61.0123
-89.8367
-122.74
-154.964
-178.021
-182.294
-164.446
-132.945
-100.809
-75.0091
-55.8028
-41.3766
-30.4403
-22.3238
-16.4792
-12.2989
-9.25494
-6.99444
-5.29048
-3.98713
-2.994
-2.24281
-1.67441
-1.24214
-0.910721
-0.653617
-0.450457
-0.284221
-0.140393
-0.00802842
0.121979
0.257674
57.7627
58.7832
61.2783
65.2886
70.8436
78.0492
86.9914
97.5738
109.35
121.271
131.416
136.881
134.955
124.79
108.624
90.5128
73.3294
58.1663
45.2277
34.4602
25.7696
19.0322
14.0032
10.3594
7.74179
5.83501
4.41401
3.35647
2.56953
1.9767
1.52195
1.16709
0.886178
0.66024
0.474161
0.31588
0.175439
0.0444303
-0.0849411
-0.219613
56.6331
57.6219
60.0465
63.9683
69.4599
76.7004
85.8979
97.1476
110.255
124.415
137.75
145.841
144.146
131.293
111.52
90.8876
72.3017
56.4122
43.1786
32.3861
23.873
17.5189
12.891
9.56774
7.17073
5.39433
4.08783
3.13326
2.42547
1.8862
1.46554
1.13195
0.864186
0.646473
0.466097
0.31239
0.176363
0.0498898
-0.074858
-0.205655
54.4137
55.3293
57.5905
61.2932
66.5851
73.7783
83.3166
95.7037
111.357
130.155
149.742
164.466
163.469
144.396
117.766
92.7469
71.5085
54.2529
40.4387
29.3774
20.8272
14.5566
10.1141
7.40733
5.61644
4.20886
3.14782
2.39186
1.84219
1.42702
1.10608
0.854363
0.653599
0.490343
0.354147
0.236218
0.129451
0.0274388
-0.0761253
-0.187091
51.184
51.9728
53.9417
57.221
62.0399
68.8629
78.444
91.9258
111.007
138.118
169.662
201.883
206.039
174.808
135.942
103.759
76.4058
55.6737
40.1413
28.2872
16.0905
11.3943
6.69461
4.18475
3.19715
2.4581
2.0192
1.72816
1.47808
1.24236
1.02075
0.819091
0.641063
0.487569
0.356443
0.243374
0.143409
0.0508781
-0.0407524
-0.139689
47.0858
47.6837
49.1964
51.7686
55.6739
61.467
70.1251
83.3369
104.058
141.499
200.334
268.782
288.113
203.954
144.34
101.605
66.1198
43.4118
28.5074
18.1471
11.8043
2.31686
3.26545
3.19223
2.11549
1.15463
0.890484
0.698748
0.537038
0.422785
0.340446
0.27694
0.222443
0.175084
0.132071
0.0908119
0.0493178
0.00584476
-0.0421787
-0.0979617
42.343
42.6819
43.5633
45.1083
47.5543
51.3885
57.5248
67.7397
85.6711
131.216
210.773
377.456
521.439
200.162
175.961
100.846
50.9333
26.125
12.4594
2.69121
-12.6687
-34.5071
-20.658
-12.3274
-8.30539
-5.26446
-2.50321
-1.02304
-0.260765
0.107216
0.253558
0.28525
0.258206
0.213399
0.165161
0.121612
0.083214
0.0500576
0.0194343
-0.0163325
37.2612
37.2863
37.3977
37.6499
38.1503
39.1073
40.9151
44.3291
50.8322
83.7613
150.874
367.691
1803.89
300.351
67.2381
13.3622
-2.23501
-8.07182
-12.1674
-7.91139
13.8741
9.64658
3.57091
0.731897
0.0398564
-0.644916
-0.676163
-0.562303
-0.448304
-0.347641
-0.258333
-0.189277
-0.134725
-0.0912912
-0.0561724
-0.0270069
-0.000699957
0.0273283
0.0678016
32.214
31.9033
31.1917
30.0468
28.4059
26.1247
22.9127
18.1374
10.2667
12.1033
0.0979926
-130.343
-865.542
-889.889
-242.121
-78.5883
-42.3537
-29.4788
-22.273
-15.6436
-8.50952
-12.3451
-10.203
-7.23043
-4.97541
-3.31998
-2.21588
-1.40537
-0.879968
-0.564781
-0.372331
-0.248714
-0.168349
-0.1141
-0.0726165
-0.0364689
-0.00118675
0.0368688
0.0815072
0.136612
27.5735
26.9701
25.4914
23.0479
19.4508
14.3046
6.90015
-4.05366
-21.0392
-40.3221
-97.5629
-212.296
-381.434
-398.094
-245.644
-133.654
-79.4723
-51.4808
-35.227
-24.2733
-16.8241
-14.6272
-10.3963
-6.77784
-4.88441
-3.8174
-3.01581
-2.34993
-1.82161
-1.40702
-1.0766
-0.811349
-0.600959
-0.435305
-0.30267
-0.193258
-0.098904
-0.0122423
0.0741079
0.168467
23.7462
22.8839
20.7809
17.2985
12.185
4.94002
-5.26086
-19.7461
-40.7414
-72.1138
-115.365
-169.146
-217.199
-221.594
-178.034
-124.641
-85.3524
-60.2672
-43.5895
-31.6052
-22.8779
-16.9448
-12.5161
-9.26541
-6.97618
-5.2707
-3.95117
-2.93444
-2.17255
-1.60967
-1.19242
-0.880075
-0.643754
-0.462231
-0.318485
-0.199506
-0.0951758
0.00275747
0.101448
0.207052
21.0155
19.9773
17.4399
13.2518
7.14917
-1.37059
-13.0489
-28.8665
-50.0212
-77.6776
-111.627
-147.837
-175.247
-179.439
-156.208
-120.39
-88.3531
-64.94
-48.171
-35.6703
-26.2801
-19.4791
-14.6594
-11.0911
-8.38984
-6.37232
-4.8136
-3.64388
-2.75612
-2.08111
-1.5664
-1.17137
-0.86581
-0.627007
-0.436834
-0.280646
-0.146273
-0.0236665
0.0959486
0.220832
19.597
18.4673
15.7112
11.1697
4.58643
-4.51744
-16.7936
-32.9747
-53.7011
-79.0804
-107.738
-135.553
-155.308
-159.012
-143.945
-117.267
-89.8713
-67.6402
-50.8771
-38.137
-28.3836
-21.075
-15.7308
-11.8123
-8.90306
-6.71667
-5.09203
-3.84537
-2.89543
-2.17599
-1.63087
-1.21561
-0.896368
-0.647895
-0.450602
-0.288638
-0.149032
-0.02141
0.10301
0.231708
55.8057
56.6781
58.809
62.2184
66.9039
72.9162
80.2744
88.8291
98.1276
107.23
114.54
117.849
115.134
105.912
92.1406
77.0097
62.7176
50.065
39.1911
30.0635
22.6297
16.8418
12.5431
9.43753
7.16478
5.46356
4.17411
3.19974
2.46326
1.90117
1.46628
1.12532
0.854739
0.636577
0.457189
0.305119
0.170675
0.045892
-0.0765578
-0.202925
54.7231
55.5642
57.6248
60.9408
65.5446
71.5425
79.0451
88.0427
98.2575
108.891
118.252
123.373
120.693
109.478
93.1943
76.444
61.3234
48.2587
37.2283
28.0886
20.722
15.2925
11.4358
8.65878
6.60767
5.05161
3.87755
2.99826
2.33155
1.81565
1.41018
1.08792
0.829371
0.619329
0.44592
0.298853
0.169234
0.0493469
-0.0681096
-0.18999
52.5993
53.3707
55.2722
58.3682
62.7503
68.6257
76.2799
85.9998
97.9394
111.762
125.547
134.732
132.064
116.086
95.0207
75.6113
59.0536
45.308
34.038
24.7413
16.9219
12.0769
8.98677
6.89718
5.30179
4.01541
3.04271
2.33274
1.80377
1.3985
1.08326
0.835448
0.637878
0.477405
0.344073
0.229489
0.126559
0.0291292
-0.068669
-0.17201
49.5169
50.1706
51.7964
54.4882
58.4004
63.8554
71.3641
81.6621
95.764
114.902
140.594
162.869
163.537
137.925
107.444
82.7142
61.5791
45.2779
32.7862
22.9762
10.509
7.67828
5.72626
4.5008
3.61101
2.87793
2.34386
1.93485
1.58934
1.28841
1.02802
0.806459
0.620559
0.465792
0.336994
0.228147
0.133194
0.0462299
-0.0387882
-0.128885
45.6204
46.0969
47.3053
49.3473
52.4135
56.8945
63.4578
73.2264
88.0878
117.847
159.497
206.627
214.599
147.15
104.647
74.6655
48.5913
31.5287
20.0949
12.2239
8.75009
1.78912
1.97257
1.75979
1.18255
0.783862
0.634478
0.527397
0.432772
0.358161
0.298493
0.248041
0.20235
0.159964
0.120478
0.0821847
0.0435273
0.00313888
-0.0408938
-0.0905272
41.1252
41.3672
42.008
43.1307
44.8998
47.6486
51.9949
59.1118
71.3181
106.547
167.05
291.048
390.961
114.268
119.392
60.7611
23.0999
5.18225
-3.99108
-9.41247
-9.54432
-16.4393
-8.07537
-5.50544
-3.66894
-1.95963
-0.689638
-0.0170866
0.278124
0.374011
0.370348
0.323621
0.26146
0.201037
0.148425
0.1049
0.0689274
0.0387465
0.0115429
-0.0185751
36.3219
36.2856
36.2428
36.227
36.3017
36.5903
37.3242
38.9404
42.2837
67.2531
118.862
298.802
1594.48
254.185
-13.5792
-54.1169
-59.4961
-56.7563
-51.1557
-36.0891
-12.4209
-8.1542
-6.98638
-5.5982
-3.98794
-2.78094
-1.88675
-1.27572
-0.872404
-0.601821
-0.414107
-0.285679
-0.194892
-0.129701
-0.08185
-0.0455391
-0.0157599
0.0126309
0.049442
31.5588
31.2293
30.4613
29.2235
27.4531
25.0097
21.623
16.7508
9.20276
9.78823
-0.0934313
-97.664
-672.758
-668.903
-194.983
-78.4146
-51.2666
-39.4788
-31.5027
-23.6364
-18.2175
-17.8394
-13.7783
-9.41092
-6.3567
-4.29061
-2.85773
-1.87491
-1.23277
-0.824014
-0.559995
-0.384178
-0.266338
-0.18342
-0.121757
-0.0721926
-0.0286868
0.0134679
0.0584825
0.110288
27.1999
26.6003
25.1566
22.7863
19.3339
14.4725
7.63345
-2.16345
-16.6443
-32.8706
-78.2587
-165.027
-290.303
-303.879
-192.895
-110.195
-69.003
-46.7008
-33.1291
-23.7488
-18.5529
-14.2585
-11.364
-8.44708
-6.37163
-4.90077
-3.76136
-2.85923
-2.16147
-1.62841
-1.21964
-0.904382
-0.663062
-0.477311
-0.33219
-0.215697
-0.118129
-0.0313182
0.0522802
0.140799
23.5929
22.7711
20.7766
17.4983
12.7376
6.09335
-3.07795
-15.7768
-33.6159
-59.3541
-93.7327
-134.969
-170.488
-174.479
-142.881
-102.954
-72.5408
-52.3973
-38.5759
-28.3839
-20.7294
-15.4913
-12.0564
-9.36917
-7.19453
-5.47502
-4.12836
-3.09331
-2.3103
-1.7227
-1.28183
-0.949479
-0.697323
-0.503384
-0.350566
-0.225655
-0.118331
-0.0201555
0.0760298
0.176487
21.0238
20.0466
17.6703
13.774
8.1546
0.414631
-10.0202
-23.8788
-41.9933
-65.0746
-92.678
-121.363
-142.899
-146.271
-128.72
-101.233
-75.9527
-56.8777
-42.8131
-32.1005
-23.9021
-17.9103
-13.7108
-10.5853
-8.14989
-6.248
-4.77996
-3.65038
-2.77954
-2.10924
-1.59344
-1.19544
-0.886781
-0.645328
-0.453394
-0.296561
-0.163014
-0.0428775
0.0723392
0.190617
19.6871
18.6329
16.0609
11.8519
5.81039
-2.43988
-13.4004
-27.6063
-45.466
-66.9056
-90.6458
-113.282
-129.137
-132.129
-120.384
-99.418
-77.47
-59.2245
-45.1358
-34.2299
-25.7544
-19.3281
-14.5987
-11.1196
-8.50255
-6.50095
-4.96465
-3.78118
-2.87149
-2.17438
-1.64042
-1.23003
-0.912463
-0.664216
-0.466665
-0.304727
-0.166305
-0.041338
0.0787102
0.201124
53.7708
54.4905
56.2486
59.0423
62.8396
67.6386
73.3952
79.9131
86.7435
93.0686
97.6303
98.8629
95.4616
87.3214
76.0126
63.8527
52.3851
42.1647
33.2896
25.7599
19.5655
14.7016
11.0593
8.4184
6.46795
4.9789
3.83275
2.95705
2.28873
1.77416
1.37319
1.05723
0.805212
0.601063
0.432568
0.2894
0.16276
0.0454299
-0.0691993
-0.186457
52.7381
53.4272
55.116
57.8127
61.5111
66.2482
72.0407
78.7811
86.1214
93.3013
98.9392
100.947
97.2888
87.8461
75.2001
62.3369
50.6412
40.3738
31.543
24.0998
18.0032
13.312
9.94546
7.60351
5.87991
4.55118
3.53051
2.75251
2.15323
1.68402
1.31232
1.01536
0.776013
0.580669
0.418755
0.281114
0.159657
0.047449
-0.0620019
-0.174437
50.7161
51.3377
52.8741
55.3516
58.8089
63.3514
69.1101
76.1623
84.4077
93.3198
101.396
105.326
100.717
87.6562
72.204
58.3147
46.3338
35.9588
27.1482
19.7617
13.6686
9.41667
7.15153
5.68587
4.42473
3.3776
2.59332
2.01964
1.58571
1.24688
0.978231
0.762868
0.587813
0.442914
0.320739
0.214653
0.118761
0.027892
-0.0628873
-0.157546
47.7903
48.3009
49.5801
51.6759
54.6694
58.7442
64.1715
71.2884
80.451
91.8772
103.793
111.936
105.38
85.0892
65.8009
51.6452
39.9533
30.19
22.0451
14.8489
7.52651
1.97343
2.52374
3.28663
3.08597
2.58435
2.14046
1.77396
1.45405
1.17386
0.93372
0.731499
0.562877
0.42262
0.305724
0.206535
0.119656
0.0398906
-0.0378762
-0.119575
44.1045
44.4559
45.3548
46.8622
49.0792
52.234
56.6828
62.9585
71.7633
92.3248
113.674
134.081
128.157
86.9046
62.0882
47.1912
31.7629
20.542
12.6872
6.65149
0.856351
-9.27624
-5.8718
-2.83179
-1.48512
-0.800147
-0.348364
-0.066482
0.0853069
0.156863
0.181983
0.180159
0.162422
0.135739
0.105182
0.0723419
0.0375637
0.000490406
-0.0397081
-0.0834036
39.8684
40.0126
40.409
41.1055
42.1893
43.8388
46.3647
50.2901
56.4471
78.7675
105.91
149.027
167.691
33.0631
25.1556
8.29119
-1.40453
-5.59837
-8.45768
-10.7491
-17.1545
-4.73029
-1.78406
-1.05592
-0.46484
0.0449986
0.369628
0.501074
0.505411
0.45001
0.37427
0.297965
0.22839
0.169307
0.121853
0.0838145
0.0527475
0.0265267
0.00267701
-0.023135
35.3567
35.2585
35.0599
34.7739
34.4191
34.0305
33.6601
33.3785
33.2306
47.5663
59.009
129.635
173.808
-674.622
-116.676
-80.6785
-57.6504
-52.6526
-47.6511
-41.6114
-42.5435
-20.3306
-14.2622
-9.40448
-6.23585
-4.05764
-2.61676
-1.70169
-1.12598
-0.760533
-0.522294
-0.361059
-0.251051
-0.174336
-0.118471
-0.0772506
-0.0458389
-0.0203056
0.00279063
0.0280522
30.8939
30.5423
29.7183
28.389
26.4918
23.8837
20.2979
15.2403
7.74914
6.03634
-16.3364
-84.1839
-308.223
-262.272
-108.727
-57.6342
-35.4527
-25.6104
-19.6744
-13.9582
-4.04945
8.82942
5.37848
2.04424
0.802127
0.296861
0.0169089
-0.136357
-0.206977
-0.229251
-0.223017
-0.199911
-0.169823
-0.1368
-0.102485
-0.0679864
-0.0331498
0.00300651
0.0418216
0.0836729
26.8197
26.2322
24.8261
22.5346
19.2343
14.6615
8.36583
-0.420849
-13.116
-32.622
-57.1187
-112.115
-182.473
-193.268
-132.665
-82.3992
-54.6494
-37.9618
-27.3722
-19.4541
-11.1097
-3.6519
-4.31223
-5.07093
-4.54373
-3.69387
-2.94425
-2.32429
-1.81368
-1.40062
-1.07142
-0.810456
-0.605641
-0.444135
-0.314909
-0.209421
-0.12005
-0.0402466
0.0357966
0.114011
23.449
22.6696
20.79
17.7257
13.3302
7.30044
-0.831445
-11.7562
-26.4599
-46.1981
-71.45
-99.6878
-122.74
-126.151
-107.047
-80.6269
-58.8932
-43.5947
-32.6484
-24.0559
-16.671
-11.6238
-8.91255
-7.0936
-5.50002
-4.18745
-3.19393
-2.45057
-1.8843
-1.44817
-1.11032
-0.846619
-0.63897
-0.47316
-0.337754
-0.224059
-0.124639
-0.0331179
0.0560189
0.147181
21.0504
20.1374
17.9298
14.3386
9.22022
2.28154
-6.88572
-18.7604
-33.8006
-52.1968
-73.2297
-94.3597
-109.77
-112.463
-100.833
-81.725
-63.2023
-48.4959
-37.1372
-28.202
-21.0603
-15.682
-11.8333
-9.12912
-7.09403
-5.49728
-4.25066
-3.2833
-2.53101
-1.94431
-1.4863
-1.12802
-0.846475
-0.623473
-0.443997
-0.295974
-0.169448
-0.0558785
0.0521187
0.161093
19.7974
18.823
16.4465
12.5863
7.1081
-0.263213
-9.87989
-22.0772
-37.03
-54.4708
-73.2115
-90.622
-102.568
-104.925
-96.5935
-81.3313
-64.8092
-50.507
-39.0823
-30.0168
-22.7952
-17.1976
-13.0203
-9.96502
-7.67687
-5.90928
-4.5367
-3.47773
-2.66293
-2.0352
-1.55028
-1.174
-0.879914
-0.647748
-0.461105
-0.306906
-0.174769
-0.0558378
0.0573976
0.17121
51.7976
52.3714
53.7742
55.9867
58.949
62.6169
66.8987
71.5723
76.2176
80.1591
82.4681
82.12
78.4014
71.4548
62.4372
52.8889
43.8498
35.7125
28.5642
22.4369
17.3508