/*--------------------------------*- C++ -*----------------------------------*\
| =========                 |                                                 |
| \\      /  F ield         | OpenFOAM: The Open Source CFD Toolbox           |
|  \\    /   O peration     | Version:  2306                                  |
|   \\  /    A nd           | Website:  www.openfoam.com                      |
|    \\/     M anipulation  |                                                 |
\*---------------------------------------------------------------------------*/
FoamFile
{
    version     2.0;
    format      ascii;
    arch        "LSB;label=32;scalar=64";
    class       surfaceScalarField;
    location    "0.05";
    object      phi;
}
// * * * * * * * * * * * * * * * * * * * * * * * * * * * * * * * * * * * * * //

dimensions      [0 3 -1 0 0 0 0];

oriented        oriented;

internalField   nonuniform List<scalar> 
338621
(
24.9944
0.00300067
0.00127833
24.9859
0.00580171
0.00267224
24.9727
0.00887329
0.00426758
24.9544
0.0120812
0.00618998
24.93
0.0155074
0.00873188
24.8964
0.0215134
0.0120335
24.8492
0.0308047
0.0161809
24.7866
0.0408943
0.0214491
24.7265
0.0317331
0.0280323
24.6872
0.00302395
0.0357976
24.6658
-0.0237454
0.0446159
24.6028
0.00834484
0.053947
24.6477
-0.109022
0.0634109
24.8006
-0.225266
0.0717528
24.8701
-0.148172
0.0780214
24.934
-0.145927
0.0815957
24.9955
-0.144065
0.0823147
25.0495
-0.134789
0.0806058
25.0946
-0.121885
0.076696
25.1384
-0.115051
0.07115
25.1745
-0.100357
0.0642443
25.1917
-0.0738748
0.0567088
25.1927
-0.050098
0.0490301
25.1821
-0.0307831
0.0414331
25.1633
-0.0155721
0.0343352
25.1393
-0.00395787
0.0279514
25.1132
0.00376078
0.0223242
25.0869
0.00883266
0.0174806
25.0618
0.0115961
0.0134956
25.0392
0.0123902
0.0102713
25.0195
0.0120007
0.00769746
25.003
0.0108562
0.00564618
24.9895
0.00939486
0.00410582
24.9786
0.00784043
0.00298457
24.9702
0.00633917
0.00211062
24.964
0.0047271
0.00147893
24.9595
0.00351855
0.000980143
24.9563
0.00255809
0.000651423
24.954
0.00181215
0.000408672
0.000735604
0.000279083
24.9944
0.00593089
0.00125261
24.9859
0.0116704
0.00258472
24.9724
0.0181844
0.00415747
24.9541
0.0243082
0.006057
24.9298
0.0311129
0.00857078
24.8994
0.0399773
0.0117619
24.8634
0.0507563
0.0159567
24.818
0.0647045
0.0213156
24.7551
0.0662276
0.0280878
24.6842
0.0372127
0.0362964
24.6477
-0.0334998
0.0458205
24.6452
-0.0453831
0.0556601
24.7009
-0.232234
0.0669016
24.8092
-0.410759
0.0766265
24.9206
-0.343747
0.0836549
25.0244
-0.337555
0.087486
25.1133
-0.321252
0.0881048
25.1901
-0.29761
0.0859574
25.2641
-0.277379
0.0814856
25.3173
-0.243477
0.0751397
25.3432
-0.193823
0.0675516
25.3502
-0.140182
0.0593005
25.3413
-0.0922311
0.0510353
25.3215
-0.0539058
0.0429671
25.2937
-0.023306
0.035447
25.2617
-0.000621664
0.0286895
25.2275
0.0151876
0.0228142
25.1941
0.0243908
0.0177954
25.1633
0.0287941
0.0136528
25.1354
0.0299737
0.0103098
25.1111
0.0285832
0.00766339
25.0903
0.0260655
0.00560504
25.0733
0.0223934
0.00404449
25.0594
0.0188278
0.00288123
25.0483
0.0154321
0.00202426
25.0395
0.012129
0.0013987
25.0326
0.00949463
0.000943006
25.0272
0.00730005
0.000625595
25.0233
0.0052757
0.000406492
0.00360393
0.000251938
24.9948
0.00843457
0.00118968
24.9865
0.017504
0.00245334
24.9738
0.0269268
0.00391421
24.955
0.0372446
0.005793
24.9299
0.047963
0.00821193
24.8981
0.0603496
0.0113508
24.8579
0.0752416
0.0155826
24.809
0.0923166
0.0210703
24.7412
0.105493
0.0282655
24.6458
0.0949654
0.0374479
24.5734
0.00369823
0.0486606
-0.00875031
0.00348059
-0.0085821
24.6795
-0.0430938
0.0620537
-0.0638585
-0.0429568
-0.0640495
24.5879
-0.0189964
0.0741608
-0.105067
0.0128268
-0.104071
24.7872
-0.195017
0.0855594
-0.138692
-0.225292
-0.137107
24.9169
-0.145897
0.0932327
-0.139864
-0.14372
-0.137462
25.0199
-0.13657
0.0971991
-0.134765
-0.133883
-0.132652
25.1193
-0.131107
0.0975751
-0.130144
-0.129132
-0.127842
25.2306
-0.128647
0.0948184
-0.124881
-0.126761
-0.123322
25.314
-0.116165
0.0894133
-0.110361
-0.114548
-0.109088
25.3698
-0.0994525
0.0818172
-0.0924441
-0.0980042
-0.0911922
25.3978
-0.294601
0.0727419
25.4025
-0.207932
0.0630937
25.3868
-0.130196
0.0536275
25.3582
-0.0698864
0.0446075
25.321
-0.0223424
0.0362442
25.2806
0.010774
0.0289602
25.2395
0.0336141
0.02267
25.2009
0.0456838
0.0174056
25.1654
0.0511363
0.0131286
25.1349
0.0506717
0.0097405
25.109
0.0474316
0.00711369
25.0878
0.0421455
0.00511619
25.0704
0.036147
0.0035994
25.0568
0.0299109
0.00253209
25.0459
0.024622
0.00174272
25.0373
0.0194956
0.00118037
25.0309
0.0151066
0.000783103
25.026
0.0116903
0.000506496
25.0221
0.00892911
0.000316488
0.00622766
0.000186009
24.9952
0.0110946
0.00109277
24.988
0.0224428
0.0022541
24.9757
0.0356065
0.00357511
24.9583
0.0492443
0.00534712
24.9333
0.0653515
0.00759415
24.8986
0.0844016
0.0106006
24.853
0.106004
0.0146993
24.7952
0.129762
0.0201933
24.7293
0.143574
0.0276822
6.14152
0.0363722
0.0377744
0.0532705
0.037421
0.0527916
6.16355
6.14019
6.16123
6.12424
0.0154395
0.00551842
-6.11124
6.09917
-0.0383292
0.00727905
-6.10379
6.126
-0.0503582
0.0091155
-6.12019
6.14958
-0.235353
0.0109147
-6.17236
6.1916
-0.177314
0.0121578
-6.21067
6.228
-0.166737
0.012831
-6.24613
6.26824
-0.166308
0.0131011
-6.28778
6.30365
-0.157429
0.0129139
-6.31735
6.33147
-0.142556
0.0122746
-6.34321
6.35529
-0.122825
0.0112959
25.5233
-0.108772
0.077225
-0.097924
-0.108961
-0.0992172
-6.36487
-6.37548
-6.36468
-6.37523
25.5174
-0.267792
0.0657631
25.4855
-0.152999
0.0547126
25.4384
-0.0672912
0.044579
25.3816
-0.00129979
0.0357709
25.3217
0.042704
0.0279414
25.2655
0.0684125
0.0213851
25.2148
0.0802839
0.0160546
25.1714
0.082794
0.0118293
25.1353
0.0781816
0.00856286
25.1064
0.0702165
0.00609336
25.0836
0.0606626
0.00426373
25.0657
0.0511517
0.00288345
25.0522
0.0414861
0.00198431
25.0421
0.0333565
0.00131737
25.0343
0.0264421
0.000856368
25.0284
0.0204625
0.0005413
25.024
0.0158181
0.000328965
25.0211
0.0116183
0.000187839
0.00842588
9.41944e-05
24.997
0.0119295
0.000962145
24.9908
0.0266503
0.00198236
24.9808
0.0424836
0.00313534
24.9651
0.0601906
0.00469812
24.9421
0.0816164
0.00667966
24.9088
0.108322
0.00934447
24.8593
0.142469
0.0129755
24.7858
0.185056
0.0180247
6.1717
0.232709
0.0249772
6.1645
6.17106
6.16436
6.15551
0.0488045
0.00374937
6.12943
0.00528223
-6.1578
0.0198767
0.011719
0.0114651
0.0201301
-0.0401063
-6.07596
6.04078
0.00720506
-0.00280909
0.00371336
0.00317559
-0.00248123
0.026362
-6.03919
6.05694
0.0093518
0.0271757
-0.0417371
-0.0420669
-0.021
0.0505014
-6.10991
6.1378
0.011555
-0.0568533
-0.0709502
-0.108872
-0.057324
0.254543
-6.17541
6.19421
0.0123304
-0.0585317
-0.0619747
-0.0612955
-0.0589445
0.209614
-6.21347
6.23507
0.012893
-0.0599702
-0.0590749
-0.0589409
-0.060071
0.203577
-6.25735
6.2785
0.0131745
-0.0581641
-0.0581313
-0.0580355
-0.0582596
0.198287
-6.29811
6.31605
0.0129342
-0.0543417
-0.0545135
-0.0544015
-0.0544468
0.186841
-6.33371
6.34993
0.0121945
-0.0489569
-0.0497807
-0.0496748
-0.0490604
0.169067
-6.36556
6.37853
0.0110839
-0.0414849
-0.0430234
-0.0429286
-0.0415744
0.144961
-6.39084
6.4017
-0.12943
0.0098066
25.6557
-0.312326
0.0600745
-6.40832
-6.42733
-6.40845
-6.42709
25.6065
-0.152417
0.0486049
25.5322
-0.0311287
0.0381627
25.4471
0.0547368
0.0290458
25.3623
0.105917
0.0216048
25.285
0.129939
0.0157065
25.2192
0.134987
0.0111602
25.1663
0.127868
0.00776035
25.1249
0.11428
0.00528295
25.0937
0.0979079
0.00351788
25.0708
0.081347
0.00228616
25.0545
0.0660578
0.00139428
25.0424
0.0526644
0.000880466
25.0339
0.0413818
0.000510706
25.0279
0.0321353
0.000273868
25.0235
0.0247121
0.000125774
25.0205
0.0187959
3.59193e-05
25.0181
0.0140574
-1.64755e-05
0.0102398
-4.56493e-05
24.9998
0.0106205
0.000801312
24.9964
0.0283811
0.00164446
24.9889
0.047408
0.00260289
24.9772
0.0680052
0.00382536
24.9599
0.0934996
0.00543362
24.9333
0.127269
0.0075374
24.8912
0.174179
0.0103351
24.8206
0.241398
0.0142332
6.17234
0.345226
0.0194651
6.17208
6.1722
6.1719
-0.0648305
6.14681
0.0874249
0.00291887
-0.0196104
-1.528
1.52282
0.0242417
0.000544943
-0.0194977
-1.50424
1.49184
0.031212
0.000684953
-1.46683
0.052817
1.47614
-0.06319
0.00106041
-1.52628
0.0882393
1.53477
-0.0977586
0.00103186
-1.53477
0.069579
-0.0737001
0.000750943
1.53814
-1.55126
0.069344
-0.073973
0.00089797
1.55499
0.0672658
-1.56419
1.56684
-0.0710492
0.00113317
0.0626908
-1.57371
1.57576
-0.0660278
0.00128985
0.0577744
-1.58171
1.58389
-0.0612511
0.00130109
0.0505398
-1.59055
1.59295
-0.0541248
0.00118732
-1.59692
0.147903
6.36996
-0.163039
0.00669376
-1.5837
-1.5971
-1.5838
25.1218
-0.49967
0.0219909
-6.35368
-6.12462
-6.35342
-6.12474
25.2161
-0.268069
0.0213934
25.2527
-0.0872177
0.0194202
25.2499
0.0412915
0.0163268
25.2236
0.119156
0.0129805
25.187
0.15685
0.00975874
25.149
0.166038
0.0069584
25.1146
0.157507
0.00471661
25.0862
0.139657
0.00302759
25.064
0.118265
0.00181861
25.0475
0.0968995
0.000994042
25.0356
0.0775027
0.000434084
25.0273
0.0608873
0.00013066
25.0215
0.0471998
-5.65072e-05
25.0175
0.03623
-0.000152059
25.0149
0.0275768
-0.000191027
25.0131
0.0208148
-0.000196917
25.0118
0.0155208
-0.000185208
0.0113002
-0.000165933
25.0031
0.00665128
0.000622728
25.0039
0.0263641
0.00126409
25.0013
0.0479875
0.00198923
24.996
0.0704176
0.00283294
24.9879
0.0977139
0.0039107
24.9754
0.134522
0.00529733
24.9572
0.185289
0.00698462
24.9288
0.260757
0.00910211
6.21605
0.382445
0.0115125
6.2243
6.21569
6.224
-0.105351
6.20121
0.118549
0.0016467
-0.0393275
-1.5431
1.53705
0.0450956
0.000275785
-0.0834566
-1.50802
1.4896
0.101613
0.00026665
0.00415923
-0.0744996
0.0746394
-0.00433547
3.64644e-05
-0.0213271
0.000452988
0.0208392
2.53084e-06
3.2412e-05
-0.21665
0.0106635
-0.022395
-0.00284237
0.231224
-1.2425
0.0641775
-0.0855021
-0.00279605
1.26663
0.0633592
-1.31837
1.32977
-0.0722035
-0.00256232
0.0659487
-1.36254
1.37282
-0.0738302
-0.00240094
0.0657005
-1.39808
1.40537
-0.0708158
-0.00217553
0.0638501
-1.42227
1.42763
-0.0673389
-0.00187501
-1.44741
0.221878
5.89296
-0.224983
-0.00987009
-1.49185
-1.44766
-1.49306
24.0025
-0.498719
-0.0658498
-5.91564
-6.05205
-5.91847
-6.05141
24.1165
-0.327562
-0.0545681
24.255
-0.181812
-0.0438943
24.3998
-0.0694357
-0.0340192
24.5346
0.0099642
-0.0255991
24.6504
0.0600156
-0.0189671
24.7445
0.0858701
-0.0139358
24.8176
0.094562
-0.0101648
24.8724
0.0922018
-0.00740346
24.9124
0.08365
-0.00539823
24.9409
0.0723861
-0.00397133
24.9608
0.060503
-0.00289495
24.9745
0.0493295
-0.00215688
24.9838
0.0394967
-0.00157588
24.9901
0.0311183
-0.00116896
24.9942
0.0242964
-0.000869941
24.997
0.0187044
-0.000648993
24.9987
0.0142721
-0.000484757
0.0107766
-0.000361596
25.005
0.00149865
0.000405906
25.0107
0.0198331
0.000867415
25.0161
0.0412016
0.00132227
25.0208
0.0639522
0.00181421
25.0236
0.0926118
0.00232175
25.0298
0.125412
0.00289195
25.0436
0.168219
0.00335697
25.0721
0.22881
0.00349716
6.27735
0.323887
0.002912
6.28525
6.27756
6.28765
-0.109733
6.28589
0.100941
0.000259419
-0.043937
-1.57923
1.58117
0.042007
-1.06488e-05
-0.083033
-1.60104
1.61679
-0.000194936
0.0674861
-0.0247079
-1.71965
1.75908
-0.0009149
0.0503161
-0.0196691
-0.0247818
-0.0196737
0.114265
-1.7157
1.68383
-0.000121273
-0.0822709
0.115584
-1.60429
-0.000820011
1.59263
-0.103098
0.0901005
-1.57591
-0.00120543
1.57229
-0.0852788
0.0690884
-1.56537
1.56358
-0.0658281
-0.0014718
0.0697414
-1.55883
1.55588
-0.0651895
-0.00160834
0.0632939
-1.55137
1.54917
-0.0594623
-0.00163259
0.0570551
-1.54309
1.54079
-0.0531867
-0.0015715
-1.53329
0.188323
6.11889
-0.161482
-0.0115124
-1.53386
-1.53306
-1.53401
24.4362
-0.38911
-0.0779369
-6.1105
-6.1215
-6.11314
-6.12274
24.4476
-0.274638
-0.0643515
24.4913
-0.174111
-0.0513941
24.5557
-0.09366
-0.0401536
24.6295
-0.0331099
-0.0307705
24.7022
0.0107814
-0.023408
24.7682
0.0375168
-0.0176322
24.8239
0.0519436
-0.0131582
24.8692
0.0566819
-0.00977288
24.9045
0.0556614
-0.00723879
24.9309
0.0513064
-0.00540506
24.9507
0.0447543
-0.00396058
24.965
0.0379197
-0.00295543
24.9751
0.0315682
-0.00216963
24.9825
0.025355
-0.00160781
24.9878
0.0201897
-0.001192
24.9915
0.0158384
-0.000883083
24.994
0.0124421
-0.000652883
0.00924397
-0.000480299
25.0061
-0.00391996
0.000246604
25.0151
0.0103552
0.000496056
25.0288
0.0268141
0.000692808
25.041
0.0509609
0.000830904
25.0573
0.0754502
0.000853247
25.0819
0.100226
0.000649564
25.121
0.129144
4.20982e-05
25.1856
0.165781
-0.00146479
6.32254
0.22212
-0.00437981
6.32068
6.32703
6.32161
-0.0855895
6.3391
0.0699063
-0.000874514
-0.0318308
6.41715
0.0808483
-0.00185357
-0.0328105
-0.0319102
-0.0323002
-6.36729
-0.0303209
6.52188
0.0623248
-0.00364915
-0.0226338
-0.0300526
-0.0224455
-6.47509
-0.00116489
-6.55151
6.51388
-0.0285062
-0.0062195
0.0222129
-0.00129998
0.0526335
0.0551488
-6.52952
6.50011
-0.155605
-0.00907798
0.0490091
0.0462582
0.0437081
0.0654965
-6.42772
6.38287
-0.211884
-0.0113986
0.0660503
0.0678062
0.0688066
0.0662714
-6.33641
6.29782
-0.208591
-0.0129328
0.0649347
0.0652795
0.0636271
0.0559716
-6.27318
6.25493
-0.187958
-0.0137904
0.0549385
0.0548973
0.0541896
0.0530054
-6.23885
6.22489
-0.1825
-0.0139947
0.0525229
0.052672
0.0522442
0.0481845
-6.21215
6.19786
-0.162129
-0.0136046
0.0472515
0.0478126
0.0467677
0.042257
-6.18478
6.17048
-0.138738
-0.0127696
0.0411054
0.0418618
0.0405801
0.137139
-6.16097
6.15277
-0.117286
-0.011655
24.5822
-0.286125
-0.078697
-6.14675
-6.15628
-6.14729
-6.15616
24.5848
-0.210463
-0.066789
24.6096
-0.143319
-0.0555749
24.6481
-0.086763
-0.0454156
24.6939
-0.042281
-0.0366025
24.7424
-0.0089996
-0.0287835
24.789
0.0132806
-0.0223107
24.8312
0.0268334
-0.0171006
24.8673
0.0335852
-0.0129763
24.8972
0.0354956
-0.00976393
24.9213
0.0344955
-0.00732172
24.9404
0.0311596
-0.00544765
24.9549
0.0274474
-0.00401225
24.9664
0.0230195
-0.00295902
24.9749
0.0190142
-0.0021772
24.981
0.0156469
-0.0015981
24.9858
0.01225
-0.00116983
24.9895
0.00958566
-0.00085303
0.00737053
-0.000617553
25.0068
-0.0094434
0.000122787
25.0174
-0.00038753
0.000195689
25.0271
0.0169095
0.000178298
25.0447
0.03339
4.73608e-05
25.0724
0.0481421
-0.000336481
25.1068
0.0669807
-0.0011184
25.155
0.0836123
-0.00253414
25.2214
0.104603
-0.00506424
25.3289
0.12413
-0.00937269
25.4304
0.131275
-0.0163166
-0.0574513
-0.0519308
-0.0549841
-0.0519695
25.5682
0.108772
-0.0266944
-0.0532936
-0.0548033
-0.0540777
-0.0574121
25.6876
0.010393
-0.0410822
-0.02912
-0.0119869
-0.0320858
-0.0151736
25.532
-0.209763
-0.058923
0.0417017
0.147287
0.040803
0.195039
25.3986
-0.304755
-0.0772329
0.109719
0.144846
0.125494
0.135817
25.2871
-0.319367
-0.0915627
0.111225
0.176688
0.0597811
0.17509
25.1572
-0.419853
-0.100415
0.162454
0.164882
0.160716
0.162297
25.0277
-0.381257
-0.103581
0.15357
0.155958
0.15134
0.153568
24.9161
-0.376657
-0.102419
0.151817
0.146559
0.14889
0.1434
24.8302
-0.334035
-0.0980009
0.134355
0.12781
0.131454
0.124308
24.7697
-0.28637
-0.0912225
0.113499
0.108672
0.109403
0.106477
24.7233
-0.236967
-0.0828112
0.095879
0.0895318
0.0938118
0.0869485
24.6976
-0.187173
-0.0732889
24.6907
-0.140026
-0.0634804
24.6995
-0.0982725
-0.0539266
24.72
-0.0622249
-0.0449958
24.7479
-0.033349
-0.0368254
24.7804
-0.0118057
-0.0296486
24.8129
0.00425805
-0.0234879
24.8442
0.0138482
-0.0183761
24.8725
0.0195295
-0.0142049
24.8974
0.0214379
-0.0108628
24.9188
0.0213601
-0.00822977
24.936
0.0201417
-0.00620815
24.9504
0.0176776
-0.0046121
24.9614
0.0154341
-0.00342197
24.97
0.0129558
-0.0025271
24.9771
0.0103961
-0.00185792
24.9826
0.00809332
-0.00135962
24.9863
0.00682708
-0.000989728
0.00508786
-0.000714887
25.0072
-0.0148197
1.229e-05
25.0111
-0.00427841
-1.24663e-05
25.0198
0.00841561
-0.000173492
25.0405
0.0132421
-0.000469971
25.0671
0.0227256
-0.00111033
25.0974
0.0390336
-0.00225972
25.1458
0.0395473
-0.00414102
25.2064
0.0513443
-0.00715247
25.2831
0.0595837
-0.011929
25.3737
0.0600705
-0.0190196
25.4708
0.0411107
-0.0289816
25.5272
-0.00310517
-0.0423056
25.4778
-0.102471
-0.0571981
25.4272
-0.181412
-0.0720965
25.2656
-0.0730396
-0.0841463
25.1427
-0.204548
-0.0920429
25.052
-0.195209
-0.0950811
24.9515
-0.18164
-0.0944071
24.8715
-0.163369
-0.0906701
24.8113
-0.141363
-0.0847689
24.7691
-0.117338
-0.0773987
24.7442
-0.0932366
-0.0690418
24.7347
-0.0700674
-0.0603942
24.7378
-0.0495471
-0.0518275
24.7511
-0.0318149
-0.043737
24.7716
-0.0175927
-0.0362214
24.7957
-0.00648032
-0.0294819
24.8224
0.00128442
-0.0237336
24.849
0.0060741
-0.0187698
24.874
0.0091833
-0.0146661
24.8966
0.0101735
-0.0113275
24.9161
0.0105328
-0.00865804
24.9331
0.00966931
-0.00655245
24.9468
0.00887914
-0.00491599
24.9584
0.00749987
-0.00367335
24.9675
0.00657551
-0.00272814
24.9747
0.00520433
-0.00201237
24.9801
0.00419584
-0.00147568
24.9844
0.0035758
-0.00107673
0.00236879
-0.000782041
24.9876
-2.22264e-05
24.9834
-6.5235e-05
24.9921
-0.00030064
25.006
-0.000612964
25.0302
-0.00138831
25.072
-0.0026308
25.1164
-0.00464085
25.1758
-0.00782046
25.2484
-0.0127127
25.3286
-0.0196717
25.3994
-0.0290873
25.4382
-0.0411561
25.3909
-0.0544023
25.2777
-0.0675364
25.2838
-0.0784731
25.1658
-0.0861235
25.0603
-0.0894236
24.9679
-0.0890515
24.8904
-0.0858563
24.8297
-0.0805915
24.7863
-0.0739094
24.7594
-0.0662855
24.7476
-0.058238
24.7482
-0.0501463
24.7588
-0.0424695
24.7766
-0.035325
24.799
-0.0289281
24.8237
-0.0233658
24.8483
-0.0185438
24.872
-0.0145624
24.8935
-0.0113277
24.9127
-0.00867899
24.929
-0.00658974
24.9428
-0.00492861
24.954
-0.00371929
24.9634
-0.00278071
24.9706
-0.00205808
24.9764
-0.00151191
24.981
-0.00110701
-0.000832658
24.9942
0.00291399
0.00248388
24.9858
0.00586726
0.00512235
24.9731
0.00864016
0.0081981
24.9551
0.0119983
0.0119894
24.9317
0.0150386
0.0168154
24.9004
0.0198704
0.0230784
24.8568
0.0280392
0.0311478
24.7986
0.0375407
0.0414025
24.7434
0.0280812
0.054111
24.7097
-0.0014676
0.0695543
24.6907
-0.0249517
0.0869734
24.6386
-0.00171959
0.105765
24.6827
-0.107402
0.124587
24.8221
-0.211108
0.141441
24.882
-0.137654
0.153993
24.9376
-0.136299
0.161048
24.9935
-0.137002
0.162502
25.0437
-0.129128
0.159002
25.0864
-0.117544
0.151266
25.1314
-0.114196
0.140198
25.1655
-0.0966222
0.126624
25.1819
-0.0714672
0.11169
25.1833
-0.0487501
0.0963561
25.1734
-0.0301026
0.0814033
25.1553
-0.0149778
0.0674025
25.1325
-0.00391374
0.0547406
25.1072
0.00386949
0.0436682
25.0817
0.00883627
0.0342158
25.0575
0.0112528
0.0263664
25.0358
0.0119828
0.0200067
25.0167
0.0118178
0.0149544
25.0004
0.010954
0.0110112
24.9873
0.00925237
0.00799251
24.9771
0.00745383
0.00573023
24.9689
0.00621302
0.00405534
24.963
0.00462016
0.00282875
24.9585
0.00346314
0.00193392
24.9554
0.00252106
0.0012935
24.9534
0.00152704
0.000846278
0.000703736
0.000531626
24.9944
0.00575315
0.00242331
24.9862
0.0116089
0.0049986
24.9731
0.0177064
0.00801263
24.9554
0.0238715
0.0117513
24.9318
0.0304106
0.0165353
24.9026
0.0377173
0.0227911
24.8682
0.0469328
0.0309242
24.825
0.0598838
0.0414266
24.763
0.0625481
0.0547514
24.6903
0.0352103
0.0712428
24.6528
-0.0335699
0.0905341
24.6022
-0.00887195
0.111646
24.6539
-0.227337
0.133347
24.8097
-0.444689
0.152715
24.9207
-0.333068
0.166672
25.0233
-0.326578
0.174206
25.1098
-0.311377
0.17549
25.1845
-0.28935
0.171152
25.2588
-0.272756
0.162208
25.3107
-0.240596
0.149579
25.3359
-0.188682
0.134379
25.3428
-0.137003
0.117909
25.3342
-0.0903619
0.10124
25.3147
-0.0527429
0.0851284
25.288
-0.0230304
0.0701649
25.2565
-0.000444779
0.0567242
25.2231
0.0150633
0.044988
25.1909
0.023827
0.0350438
25.1606
0.0283829
0.0268381
25.1331
0.0295217
0.0202244
25.1095
0.0281364
0.0150048
25.0896
0.0254074
0.0109646
25.0727
0.0222935
0.00789909
25.0589
0.0185319
0.00561264
25.0483
0.0149373
0.00393256
25.0394
0.0121831
0.00271325
25.0326
0.00934606
0.00183832
25.0276
0.00694323
0.00122054
25.0233
0.00544778
0.000789385
0.00329686
0.00048669
24.9947
0.00842953
0.00230036
24.9869
0.0170554
0.00474948
24.9743
0.0264786
0.00763159
24.9563
0.0362213
0.0112339
24.9321
0.0467714
0.0158936
24.9008
0.0579058
0.0220705
24.8619
0.0707394
0.030275
24.8151
0.0860439
0.0411649
24.7501
0.0995924
0.0555091
24.6573
0.0907322
0.0740002
24.5845
0.00309045
0.0968254
-0.00851279
0.00319215
-0.00773019
24.7277
-0.0434198
0.123257
-0.0650177
-0.0425376
-0.0636165
24.6023
0.0127507
0.149522
-0.104911
0.0150013
-0.10169
24.7902
-0.227219
0.173466
-0.138027
-0.223414
-0.133242
24.9151
-0.144524
0.189427
-0.138336
-0.139525
-0.132722
25.0151
-0.135018
0.197489
-0.134006
-0.129753
-0.128368
25.1126
-0.130734
0.198409
-0.129518
-0.125323
-0.12419
25.2224
-0.12841
0.192845
-0.125125
-0.123276
-0.120171
25.3047
-0.116548
0.181843
-0.111323
-0.111963
-0.107596
25.361
-0.100688
0.166451
-0.0935139
-0.0972106
-0.0899468
25.3901
-0.292847
0.147764
25.3944
-0.206104
0.127977
25.3794
-0.130009
0.108259
25.3514
-0.0701951
0.0900607
25.315
-0.0234486
0.0730372
25.2753
0.00982688
0.0583629
25.2355
0.0322416
0.0453315
25.1972
0.044777
0.034698
25.1626
0.0500187
0.0260938
25.1332
0.0493968
0.0193015
25.1076
0.0467835
0.0140544
25.0867
0.0413866
0.0100798
25.0704
0.0352668
0.00687332
25.0569
0.0296619
0.00496299
25.0462
0.0239733
0.00340681
25.038
0.0191918
0.00230122
25.0318
0.0148743
0.00152503
25.0267
0.0115211
0.000986581
25.023
0.00880718
0.000616519
0.00613911
0.00036184
24.9959
0.0105239
0.00211174
24.9886
0.0221212
0.00436276
24.9766
0.0349563
0.0070226
24.9593
0.0484005
0.0103714
24.9353
0.0634201
0.0147546
24.9014
0.0814669
0.0206489
24.8562
0.101645
0.0286948
24.7982
0.124116
0.0397128
24.7303
0.13977
0.0548934
6.14188
0.0368437
0.0757254
0.0510491
0.0371224
0.0508334
6.16207
6.14161
6.1613
-0.0109528
6.1253
0.0139102
0.016659
-0.0145841
-6.11347
6.10197
-0.0395817
0.0221534
-0.0183689
-6.10676
6.10011
0.00968315
0.0279607
-0.0220943
-6.11739
6.15171
-0.273265
0.0337076
-0.0247057
-6.17357
6.1922
-0.176237
0.0377262
-0.0261782
-6.21066
6.22786
-0.165982
0.039927
-0.0267093
-6.24512
6.26711
-0.166706
0.0407133
-0.0262933
-6.28708
6.30292
-0.158005
0.0400797
-0.0250033
-6.31637
6.33052
-0.143763
0.0380891
-0.0229876
-6.34143
6.35354
-0.124852
0.0350478
25.5125
-0.111502
0.163601
-0.100138
-0.112295
-0.098611
-6.36303
-6.3731
-6.36142
-6.37156
25.5086
-0.275011
0.138664
25.478
-0.159083
0.114375
25.4318
-0.0729588
0.0935729
25.3759
-0.00641369
0.0745867
25.3171
0.0382782
0.0583185
25.2618
0.0646076
0.0442504
25.2123
0.0773145
0.0330588
25.1698
0.0801221
0.0242371
25.1343
0.0760079
0.0174564
25.1061
0.0687295
0.0123603
25.0838
0.0592976
0.00860783
25.0662
0.0500958
0.00564587
25.053
0.0409318
0.00397191
25.0429
0.0327515
0.00262619
25.0355
0.0257423
0.00170069
25.0294
0.0203833
0.00107194
25.0251
0.0155801
0.000650689
25.0222
0.0114487
0.000371477
0.00830843
0.00018644
24.9978
0.0107344
0.00185732
24.9921
0.025959
0.00383448
24.9819
0.04202
0.00616925
24.9666
0.0591784
0.00911449
24.9439
0.0796487
0.0129915
24.9114
0.105156
0.0179951
24.8626
0.137595
0.0255322
24.7904
0.178307
0.0357164
6.173
0.22509
0.0503396
6.16652
6.17316
6.1667
-0.00743545
6.15807
0.0478491
0.011337
-0.0105595
6.1319
0.0161644
-6.16057
0.0189436
0.010773
0.0192039
0.0105247
-0.0363887
-0.0145504
-6.07921
6.04573
0.0224494
-0.00391598
0.00189771
-0.00383931
0.00177601
0.0295798
-0.0191536
-6.04376
6.05712
0.0297839
0.049396
-0.0431275
0.0489988
-0.0430048
-0.0363527
-0.0236512
-6.09786
6.14091
0.0368431
-0.056519
-0.134118
-0.057161
-0.13371
0.325206
-0.0256243
-6.17596
6.19319
0.040117
-0.0584564
-0.0617415
-0.0591028
-0.0611401
0.208685
-0.0267044
-6.21315
6.2347
0.0416744
-0.060348
-0.0598488
-0.0608824
-0.0593129
0.203926
-0.0270836
-6.25668
6.27763
0.042105
-0.0586746
-0.059009
-0.0591116
-0.0585617
0.199472
-0.0264519
-6.29704
6.31476
0.0409944
-0.0546935
-0.0553467
-0.0552745
-0.0549873
0.188103
-0.024869
-6.33236
6.34821
0.0384717
-0.049597
-0.050603
-0.0498588
-0.0503247
0.170969
-0.0225748
-6.36376
6.37665
0.0349111
-0.0424092
-0.0438555
-0.0423704
-0.0436375
0.147067
-6.38824
-0.0198356
6.39936
-0.133564
0.0307831
25.6469
-0.334116
0.133559
-6.40665
-6.42505
-6.40556
-6.42397
25.5994
-0.169732
0.106705
25.5266
-0.0451495
0.083168
25.443
0.0430673
0.0631867
25.3595
0.096535
0.0468427
25.2832
0.122518
0.034119
25.2186
0.129197
0.023918
25.1665
0.123463
0.0165282
25.1256
0.110938
0.0111802
25.095
0.0954652
0.00739688
25.0725
0.0795838
0.00452593
25.0562
0.0647733
0.00300031
25.0445
0.0517366
0.00182014
25.0359
0.0407279
0.00105229
25.0297
0.0317018
0.000563724
25.0255
0.02441
0.00026071
25.0225
0.0186107
7.80036e-05
25.02
0.0139572
-2.78411e-05
0.0102269
-8.6556e-05
25.0018
0.0074674
0.00154467
24.9993
0.0268802
0.00317832
24.9914
0.0473715
0.00508739
24.9793
0.0676407
0.00747065
24.9618
0.0918926
0.010579
24.9361
0.12401
0.0142553
24.8945
0.168821
0.0204958
24.8248
0.233582
0.0284572
6.1738
0.334627
0.0400863
6.17324
6.17394
6.17336
-0.00575229
-0.0627184
6.14871
0.0845308
0.0089813
-0.00187689
-0.0185545
-1.52851
1.52332
0.0231244
0.00249239
-0.00275391
-0.0170782
-1.50502
1.49241
0.0288878
0.00354419
-0.00408139
-1.46873
0.0543227
1.47817
-0.0649348
0.00524289
-0.00542041
-1.52581
0.158023
1.53678
-0.17062
0.00704003
-0.00536498
-1.535
0.0701018
-0.0754602
1.53856
0.00716789
-1.55173
-0.00550194
0.0708781
-0.0765211
0.00726856
1.5556
-0.00568451
0.0686271
-1.56448
1.56705
-0.0728622
0.00735677
-0.00558901
0.0637692
-1.57371
1.57568
-0.0672816
0.00712662
-0.00516254
0.0587251
-1.58145
1.58356
-0.0622049
0.00653239
-0.00452312
0.0514764
-1.5901
1.59245
-0.0550061
0.00571134
-1.5962
-0.0129575
0.152328
6.36605
-0.168727
0.0203866
-1.58265
-1.59593
-1.58229
25.1041
-0.533894
0.0516715
-6.34967
-6.12191
-6.34593
-6.11646
25.2007
-0.294432
0.0494391
25.2406
-0.109928
0.0443578
25.2413
0.0214856
0.0371573
25.2182
0.103308
0.0293091
25.1838
0.144574
0.0221084
25.1477
0.156787
0.0154907
25.1147
0.150693
0.0104626
25.0873
0.134735
0.00671321
25.0657
0.114769
0.00405068
25.0498
0.0944593
0.00199642
25.0381
0.0758313
0.00108051
25.0299
0.0597688
0.000364889
25.0241
0.0464751
-4.47399e-05
25.0201
0.0357731
-0.00025794
25.0174
0.0273128
-0.000349185
25.0155
0.0206962
-0.000369434
25.0141
0.0155369
-0.000351705
0.0114717
-0.000317353
25.0091
0.00607298
0.00119613
25.01
0.0247988
0.0024332
25.0068
0.0486481
0.00384033
25.0004
0.0713441
0.00553683
24.991
0.0975655
0.00766037
24.9782
0.132164
0.00988282
24.96
0.180063
0.013886
24.9318
0.252489
0.0183385
6.21616
0.371975
0.0242789
6.22454
6.21613
6.22485
-0.00328031
-0.102028
6.20124
0.115053
0.00516118
-0.000983439
-0.0380531
-1.54302
1.53694
0.0437975
0.00131123
-0.00115977
-0.0808435
-1.50739
1.48905
0.0987832
0.00155804
-0.000137677
0.00438835
-0.074713
0.0749064
-0.0045975
0.000154415
0.00133271
-0.257052
0.0205535
-0.0303267
-0.00103102
0.266525
-1.27939
0.0062367
0.0761618
-0.0931169
-0.00753297
1.29765
0.00635355
0.0682602
-1.33749
1.34545
-0.0748301
-0.00773094
0.0061869
0.0690948
-1.37052
1.37937
-0.0765832
-0.00754808
0.00579575
0.0672955
-1.40174
1.40848
-0.0727223
-0.00710827
0.00521867
0.0648919
-1.42415
1.42941
-0.0689173
-0.00645163
-1.44924
0.0187317
0.228358
5.8998
-0.23038
-0.0286732
-1.49453
-1.44936
-1.49471
24.0172
-0.512873
-0.144401
-5.92353
-6.05232
-5.92706
-6.0568
24.1266
-0.338185
-0.120232
24.2621
-0.192883
-0.096365
24.404
-0.0797566
-0.0747111
24.5369
0.00124108
-0.0564306
24.6516
0.0526494
-0.0417262
24.7449
0.0799449
-0.0304259
24.8175
0.089964
-0.0220176
24.8719
0.0888032
-0.0158835
24.9114
0.0813116
-0.0114567
24.9394
0.0708392
-0.00828022
24.959
0.0593163
-0.00600492
24.9726
0.0484007
-0.00437409
24.9818
0.0388338
-0.00320043
24.9881
0.0306647
-0.00235261
24.9923
0.0239806
-0.00173671
24.9951
0.0185625
-0.00128693
24.9968
0.0142929
-0.000955614
0.0110588
-0.000708509
25.0088
0.000497965
0.000841539
25.0163
0.0164301
0.00166368
25.0236
0.0401324
0.00254319
25.0282
0.0650539
0.00350499
25.0284
0.0951648
0.00455952
25.0339
0.1242
0.00541654
25.0474
0.163415
0.00667763
25.0777
0.218549
0.00720859
6.27856
0.301587
0.00660853
6.2913
6.27995
6.29486
-0.000582493
-0.106026
6.28668
0.0975987
0.000918722
1.89433e-06
-0.0427538
-1.57887
1.58072
0.0409117
-2.01954e-06
0.0005969
-0.0788136
-1.60209
1.61921
0.0617948
-0.00069423
0.00218612
-0.0251107
-1.71794
1.75696
0.0521041
-0.00108338
-0.0203865
-0.0260308
-0.0206942
0.00264113
0.129352
-1.71273
1.67888
-0.0944474
-0.0036871
0.121259
-1.60286
0.00453971
1.5909
-0.107751
-0.0060829
0.00586741
0.0884652
-1.57434
-0.0075999
1.57164
-0.0840227
0.00654207
0.0682999
-1.56642
1.56416
-0.0642296
-0.00834391
0.00677268
0.0698876
-1.56044
1.55789
-0.065532
-0.00857675
0.00670434
0.0632693
-1.55299
1.5508
-0.0593291
-0.00845121
0.00635331
0.0570184
-1.543
1.5415
-0.0538718
-0.00799495
-1.53634
0.0231855
0.192095
6.13115
-0.161692
-0.035878
-1.53753
-1.53659
-1.53841
24.4655
-0.378681
-0.167107
-6.12185
-6.12646
-6.12875
-6.13344
24.4738
-0.273482
-0.137361
24.5144
-0.175708
-0.109242
24.5764
-0.0964881
-0.0853931
24.6471
-0.0349045
-0.0653577
24.7176
0.00823649
-0.0494347
24.7815
0.0353574
-0.0369616
24.8358
0.0499346
-0.0273975
24.8796
0.0553514
-0.0201962
24.9136
0.0549563
-0.0148405
24.9392
0.0507232
-0.0108906
24.9583
0.0444649
-0.00824204
24.972
0.0376373
-0.00587274
24.9815
0.0314888
-0.0043202
24.9886
0.0251826
-0.00318276
24.9936
0.0201371
-0.00234779
24.9971
0.0158761
-0.00173238
24.9992
0.0128474
-0.00127624
0.00994713
-0.000935092
25.0076
-0.00471715
0.000478615
25.0186
0.00506273
0.000934156
25.0337
0.0244326
0.00131807
25.0432
0.0548653
0.00158661
25.062
0.0756449
0.00163868
25.0867
0.0989877
0.00126592
25.1259
0.124415
9.49109e-05
25.1925
0.153446
-0.00267585
6.33174
0.188293
-0.00829286
6.32134
6.33626
6.32058
-0.0821213
0.00164911
6.35048
0.0643086
-0.00255551
-0.0311505
0.00375068
6.42506
0.0790486
-0.0054862
-0.0288409
-0.0312779
-0.0278006
-6.38332
-0.0255611
0.00748747
6.49581
0.0657107
-0.0109653
-0.0246406
-0.0243875
-0.0266823
-6.45673
-0.00239381
0.0128206
-6.54246
6.498
-0.0835857
-0.0195005
0.0705613
-0.00341557
0.0700644
0.0454684
0.0191
-6.48462
6.45896
-0.178017
-0.0293662
0.0621963
0.0448741
0.0615164
0.0690604
-6.42803
0.024681
6.37803
-0.218405
-0.037465
0.068298
0.0723615
0.0715602
0.066222
0.0279474
-6.33215
6.29844
-0.211113
-0.0422432
0.0642604
0.0652728
0.0633833
0.0554914
0.0295157
-6.2784