/*--------------------------------*- C++ -*----------------------------------*\
| =========                 |                                                 |
| \\      /  F ield         | OpenFOAM: The Open Source CFD Toolbox           |
|  \\    /   O peration     | Version:  2306                                  |
|   \\  /    A nd           | Website:  www.openfoam.com                      |
|    \\/     M anipulation  |                                                 |
\*---------------------------------------------------------------------------*/
FoamFile
{
    version     2.0;
    format      ascii;
    arch        "LSB;label=32;scalar=64";
    class       volVectorField;
    location    "0.05";
    object      U;
}
// * * * * * * * * * * * * * * * * * * * * * * * * * * * * * * * * * * * * * //

dimensions      [0 1 -1 0 0 0 0];

internalField   nonuniform List<vector> 
111542
(
(99.9929 0.00607497 0.00256239)
(99.9694 0.0122576 0.00539554)
(99.926 0.0185122 0.0085667)
(99.8618 0.0249626 0.0124965)
(99.7759 0.0312982 0.0175306)
(99.6667 0.0366529 0.0240767)
(99.5342 0.0390383 0.0323598)
(99.3818 0.0353125 0.0428363)
(99.2206 0.0206062 0.0559751)
(99.0728 -0.0117902 0.0717637)
(98.9744 -0.0676405 0.0897785)
(98.9702 -0.145154 0.109134)
(99.0915 -0.226417 0.128754)
(99.3339 -0.289905 0.146078)
(99.6534 -0.321242 0.158924)
(99.9969 -0.327074 0.166406)
(100.328 -0.314729 0.168165)
(100.626 -0.288748 0.164695)
(100.879 -0.252653 0.15672)
(101.075 -0.209725 0.145286)
(101.208 -0.163735 0.131217)
(101.273 -0.119857 0.11569)
(101.275 -0.0811603 0.0999187)
(101.225 -0.0489766 0.0844639)
(101.138 -0.0232064 0.0699427)
(101.026 -0.00334713 0.0569569)
(100.903 0.0109794 0.0454897)
(100.776 0.0201604 0.0356274)
(100.654 0.025226 0.0274787)
(100.542 0.0271786 0.0209073)
(100.442 0.026891 0.0156834)
(100.356 0.0250607 0.011525)
(100.283 0.0224423 0.00836459)
(100.223 0.0195073 0.00602372)
(100.174 0.0165458 0.00430563)
(100.136 0.0137282 0.00303673)
(100.105 0.0110949 0.00202917)
(100.081 0.00882982 0.00132719)
(100.063 0.0069452 0.000867209)
(100.046 0.00538974 0.000558411)
(99.9932 0.0180758 0.00251203)
(99.9702 0.03641 0.00522548)
(99.9275 0.0553542 0.00837669)
(99.8639 0.075204 0.0122805)
(99.7776 0.0952125 0.0172755)
(99.6653 0.113045 0.0237617)
(99.5247 0.123427 0.0321548)
(99.3565 0.117054 0.042947)
(99.168 0.0785901 0.0566031)
(98.9806 -0.0141137 0.0733027)
(98.8378 -0.179862 0.0926737)
(98.8101 -0.414947 0.112626)
(98.9496 -0.666626 0.134359)
(99.2421 -0.858636 0.153816)
(99.6172 -0.961892 0.168007)
(100.004 -0.995895 0.175801)
(100.367 -0.977154 0.177251)
(100.688 -0.916205 0.172998)
(100.958 -0.820332 0.163958)
(101.164 -0.695083 0.151213)
(101.298 -0.547727 0.135901)
(101.355 -0.396631 0.119363)
(101.346 -0.258561 0.102658)
(101.283 -0.142779 0.0864737)
(101.184 -0.05074 0.0713702)
(101.061 0.0169341 0.0578334)
(100.926 0.0628434 0.0459868)
(100.791 0.0900473 0.0359022)
(100.662 0.102554 0.0275634)
(100.544 0.104372 0.0208311)
(100.441 0.0990461 0.0155007)
(100.352 0.0894263 0.0113504)
(100.278 0.077897 0.00819439)
(100.218 0.0660124 0.00584158)
(100.169 0.0547045 0.00411067)
(100.131 0.0444699 0.00284647)
(100.101 0.0354652 0.00192351)
(100.078 0.0278904 0.00127288)
(100.06 0.0216604 0.000824626)
(100.044 0.0165762 0.000512738)
(99.9936 0.0295653 0.00238657)
(99.9718 0.0596445 0.00496167)
(99.931 0.0914808 0.0079843)
(99.8694 0.125807 0.0117495)
(99.7832 0.162116 0.0166065)
(99.6669 0.197699 0.0229969)
(99.5132 0.225733 0.0314499)
(99.3155 0.231902 0.0425946)
(99.072 0.18856 0.0571189)
(98.8012 0.0454917 0.0756059)
(98.5636 -0.310049 0.098323)
(98.4765 -0.805085 0.12489)
(98.6473 -1.26977 0.148319)
(99.0357 -1.56052 0.169577)
(99.5072 -1.68957 0.184896)
(99.9694 -1.71219 0.192949)
(100.394 -1.65045 0.193899)
(100.77 -1.52523 0.188427)
(101.091 -1.3497 0.177556)
(101.343 -1.13417 0.162494)
(101.505 -0.898235 0.144421)
(101.563 -0.653856 0.125387)
(101.531 -0.430609 0.106632)
(101.435 -0.245088 0.088789)
(101.299 -0.0984167 0.0722212)
(101.141 0.0114821 0.0577768)
(100.977 0.0862841 0.0453093)
(100.817 0.131379 0.0348493)
(100.669 0.153235 0.0263297)
(100.539 0.158094 0.0195649)
(100.428 0.151478 0.01431)
(100.335 0.137922 0.0103067)
(100.26 0.120933 0.00731285)
(100.201 0.102978 0.00511439)
(100.154 0.0856372 0.00352535)
(100.117 0.0698188 0.00239136)
(100.089 0.0559457 0.00158986)
(100.068 0.0441519 0.00102964)
(100.052 0.0343321 0.000643566)
(100.038 0.0262643 0.000378895)
(99.9943 0.0399929 0.00219252)
(99.9749 0.0810464 0.00455973)
(99.9381 0.125492 0.0073491)
(99.8812 0.175209 0.0108475)
(99.799 0.231079 0.0154057)
(99.6823 0.292123 0.0214874)
(99.5172 0.353548 0.0297038)
(99.2834 0.402163 0.0408398)
(98.9522 0.40749 0.055887)
(98.4598 0.193474 0.0759864)
(98.2052 0.00417066 0.0818685)
(97.8655 -0.68953 0.0954312)
(97.9466 -1.55637 0.106848)
(98.48 -2.16345 0.11499)
(99.1039 -2.40218 0.122285)
(99.6836 -2.4719 0.124818)
(100.223 -2.41247 0.122993)
(100.712 -2.25824 0.116989)
(101.151 -2.02814 0.107587)
(101.533 -1.73275 0.0959004)
(101.98 -1.31333 0.149697)
(102.033 -0.902987 0.12784)
(101.948 -0.545052 0.106642)
(101.776 -0.251172 0.087098)
(101.56 -0.0260149 0.0699392)
(101.327 0.132893 0.0547884)
(101.095 0.2315 0.0420507)
(100.882 0.281068 0.031656)
(100.696 0.294376 0.0233877)
(100.54 0.283287 0.0169735)
(100.413 0.257638 0.0121095)
(100.313 0.224914 0.00849564)
(100.235 0.19033 0.00586043)
(100.176 0.15719 0.00397393)
(100.131 0.127314 0.00264573)
(100.097 0.101473 0.00172448)
(100.072 0.0797729 0.0010936)
(100.054 0.061932 0.000666899)
(100.041 0.0474679 0.000381984)
(100.03 0.0358368 0.000192648)
(99.9955 0.0485603 0.00193019)
(99.9799 0.0988989 0.00401013)
(99.95 0.154663 0.00645776)
(99.9027 0.219445 0.00953048)
(99.8318 0.296678 0.0135491)
(99.7261 0.389564 0.0189414)
(99.5664 0.500353 0.0262986)
(99.3204 0.627348 0.0364072)
(98.8846 0.757269 0.0503084)
(98.5404 0.761082 0.0550649)
(97.7245 0.357295 0.0668672)
(96.8992 -0.736669 0.0820643)
(96.9613 -2.47028 0.0930033)
(98.106 -3.23285 0.0981711)
(98.9791 -3.429 0.104745)
(99.6964 -3.45672 0.10841)
(100.337 -3.33277 0.109149)
(100.895 -3.11675 0.105686)
(101.413 -2.80982 0.0982143)
(101.879 -2.39348 0.0878642)
(102.25 -1.88406 0.0765197)
(102.609 -1.14851 0.115769)
(102.453 -0.653573 0.0937682)
(102.188 -0.263586 0.0737397)
(101.861 0.0223547 0.0563667)
(101.518 0.209507 0.0420225)
(101.194 0.316529 0.0306114)
(100.911 0.363419 0.0218033)
(100.678 0.368439 0.015198)
(100.495 0.34689 0.0103711)
(100.356 0.310587 0.00692255)
(100.253 0.268031 0.00450958)
(100.179 0.224881 0.00285549)
(100.126 0.184546 0.0017443)
(100.089 0.148775 0.00101346)
(100.063 0.118186 0.000543923)
(100.045 0.0927021 0.000249645)
(100.033 0.0718579 7.05362e-05)
(100.024 0.0550059 -3.42997e-05)
(100.017 0.0414765 -9.29183e-05)
(99.9971 0.0542936 0.00160675)
(99.987 0.111081 0.00332516)
(99.9673 0.175271 0.00532567)
(99.9355 0.252271 0.00780824)
(99.886 0.348535 0.0110173)
(99.8089 0.472819 0.0152685)
(99.6854 0.638218 0.0209851)
(99.4797 0.864836 0.0286967)
(99.071 1.18499 0.0390386)
(98.6639 1.34594 0.0428636)
(97.71 1.49189 0.0407936)
(95.5706 0.736982 0.0372955)
(94.2489 -3.45023 0.0502933)
(97.942 -4.94293 0.0319144)
(98.6101 -4.46302 0.018789)
(99.5262 -4.50668 0.0213938)
(100.212 -4.31257 0.030396)
(100.709 -4.06148 0.0378804)
(101.191 -3.75906 0.0404364)
(101.751 -3.3021 0.0382283)
(101.77 -2.41997 0.0593215)
(100.185 -1.28317 0.0444541)
(100.632 -0.541828 0.0431836)
(100.885 0.0561959 0.0389263)
(100.949 0.463277 0.0325424)
(100.882 0.688913 0.0256567)
(100.749 0.772939 0.0191314)
(100.598 0.760721 0.013525)
(100.454 0.692308 0.00907406)
(100.332 0.597822 0.00574801)
(100.235 0.497274 0.00338764)
(100.161 0.402426 0.00179307)
(100.108 0.319094 0.000770157)
(100.071 0.249211 0.000151201)
(100.046 0.19245 -0.000193582)
(100.03 0.147356 -0.000362367)
(100.019 0.11205 -0.000423966)
(100.012 0.084644 -0.000424063)
(100.008 0.0634204 -0.000392296)
(100.005 0.0468948 -0.000347921)
(99.999 0.0562597 0.00125019)
(99.9957 0.115486 0.00255923)
(99.9891 0.183395 0.00403554)
(99.9778 0.266612 0.0057999)
(99.9593 0.373695 0.00798268)
(99.9294 0.51753 0.0107238)
(99.8802 0.719346 0.0141518)
(99.7989 1.01705 0.0183068)
(99.6426 1.48407 0.0229769)
(99.3829 1.8836 0.0247323)
(98.685 2.83028 0.0219729)
(95.5783 5.91979 0.017258)
(76.8971 -3.98748 0.0418057)
(102.346 -10.2552 0.0245954)
(55.626 -3.45088 -0.803919)
(79.555 -4.89771 -0.251401)
(84.2733 -4.47371 -0.172818)
(87.4152 -4.3688 -0.129433)
(89.5926 -4.31113 -0.102347)
(91.0856 -4.17298 -0.0820109)
(94.0394 -3.86837 -0.0906164)
(95.7474 -2.38961 -0.128944)
(96.1461 -1.48088 -0.106588)
(96.6914 -0.709754 -0.0854562)
(97.2838 -0.134404 -0.0660168)
(97.8567 0.245282 -0.0495826)
(98.3639 0.458114 -0.0367103)
(98.7852 0.545237 -0.0269188)
(99.1188 0.549202 -0.019644)
(99.3729 0.505147 -0.014328)
(99.5605 0.438481 -0.0104732)
(99.6956 0.365733 -0.00768316)
(99.7908 0.296473 -0.00566033)
(99.8569 0.235387 -0.00418885)
(99.9022 0.184053 -0.0031128)
(99.933 0.142277 -0.00232181)
(99.9537 0.108988 -0.00173684)
(99.9677 0.0828054 -0.00130209)
(99.9771 0.0623265 -0.000976912)
(99.9842 0.0462598 -0.000731695)
(100.001 0.0539609 0.000868362)
(100.005 0.110879 0.00174821)
(100.013 0.176578 0.00267533)
(100.024 0.257772 0.0036769)
(100.04 0.363137 0.004754)
(100.065 0.505451 0.00584427)
(100.104 0.704923 0.0067563)
(100.174 0.995703 0.00702219)
(100.333 1.43772 0.00564218)
(100.393 1.83968 0.00497988)
(100.704 2.80924 0.00101365)
(102.644 5.30049 -0.00625176)
(111.62 3.51781 -0.0300999)
(109.202 -7.60469 0.0578205)
(102.422 -7.61928 -0.0109211)
(100.555 -5.75497 -0.0323915)
(99.9097 -4.75939 -0.0414697)
(99.4844 -4.20739 -0.0459827)
(99.0555 -3.82864 -0.0471488)
(98.5557 -3.47261 -0.0458966)
(97.9915 -2.78333 -0.0946167)
(97.7398 -1.73065 -0.1529)
(97.7084 -1.20289 -0.126528)
(97.8276 -0.758073 -0.101235)
(98.059 -0.400983 -0.0792338)
(98.349 -0.131006 -0.0608191)
(98.651 0.0555219 -0.0463642)
(98.9334 0.171166 -0.0349511)
(99.1798 0.231139 -0.0261274)
(99.383 0.250996 -0.0194375)
(99.5433 0.2447 -0.014423)
(99.6658 0.223334 -0.0106906)
(99.7572 0.194875 -0.00792306)
(99.8241 0.164586 -0.00587494)
(99.8725 0.135611 -0.00435926)
(99.9072 0.109588 -0.00323706)
(99.9321 0.087143 -0.00240428)
(99.9498 0.0683074 -0.00178446)
(99.9625 0.0527795 -0.00132151)
(99.9731 0.0401236 -0.000973908)
(100.003 0.0472404 0.00055367)
(100.014 0.0970695 0.00103097)
(100.034 0.154611 0.00142815)
(100.066 0.225567 0.00169589)
(100.114 0.316924 0.00172572)
(100.185 0.437921 0.00129613)
(100.292 0.601296 -2.46662e-05)
(100.464 0.824315 -0.00303137)
(100.787 1.12778 -0.00912139)
(101.018 1.35129 -0.0115324)
(101.892 1.75414 -0.0196006)
(103.534 1.55096 -0.033763)
(105.287 -0.650013 -0.0490927)
(104.644 -3.39167 -0.0267802)
(102.59 -4.1498 -0.0481394)
(101.151 -3.91426 -0.0659606)
(100.305 -3.5209 -0.0751396)
(99.7263 -3.14874 -0.0780333)
(99.2602 -2.79888 -0.0764682)
(98.8475 -2.4385 -0.071759)
(98.5052 -2.03732 -0.0651245)
(98.3274 -1.31043 -0.153499)
(98.2979 -0.957352 -0.130846)
(98.3614 -0.63259 -0.109227)
(98.4965 -0.357462 -0.0894749)
(98.6727 -0.142898 -0.0722429)
(98.8664 0.0102751 -0.056995)
(99.0605 0.110292 -0.0442866)
(99.2401 0.166516 -0.0340163)
(99.3973 0.189879 -0.0258646)
(99.5295 0.190836 -0.0195)
(99.6372 0.178035 -0.0146004)
(99.7228 0.157986 -0.0108714)
(99.7895 0.13521 -0.00805937)
(99.8408 0.112584 -0.00595425)
(99.8798 0.0917401 -0.00438797)
(99.9092 0.0734313 -0.0032263)
(99.9312 0.0578608 -0.00236578)
(99.9475 0.044903 -0.00172805)
(99.9616 0.034261 -0.00125341)
(100.005 0.0366285 0.000252004)
(100.021 0.0752814 0.000410191)
(100.052 0.119719 0.00037418)
(100.1 0.174074 4.63717e-05)
(100.171 0.24291 -0.000754272)
(100.273 0.331251 -0.00235765)
(100.422 0.444113 -0.0053189)
(100.641 0.584076 -0.0105324)
(100.972 0.744487 -0.0194089)
(101.449 0.795657 -0.0337453)
(102.066 0.646208 -0.0551304)
(102.698 0.0446066 -0.0840034)
(102.967 -1.0254 -0.1176)
(102.571 -1.91133 -0.146997)
(101.748 -2.22785 -0.174813)
(100.933 -2.2103 -0.1937)
(100.302 -2.07314 -0.201347)
(99.8289 -1.88511 -0.199892)
(99.4571 -1.6686 -0.191857)
(99.1608 -1.43183 -0.179003)
(98.9384 -1.18196 -0.162745)
(98.8017 -0.935803 -0.1443)
(98.7489 -0.706911 -0.12529)
(98.7618 -0.499801 -0.106683)
(98.8261 -0.322978 -0.089109)
(98.9276 -0.180342 -0.0730965)
(99.0517 -0.0704384 -0.058966)
(99.1843 0.00763364 -0.0468297)
(99.3144 0.0583175 -0.0367107)
(99.4352 0.0871245 -0.0284347)
(99.5425 0.0996007 -0.0217885)
(99.6346 0.100773 -0.0165383)
(99.7115 0.0947998 -0.0124492)
(99.7742 0.0848741 -0.00930356)
(99.8246 0.0733089 -0.00691151)
(99.8643 0.061568 -0.00511054)
(99.8953 0.0505247 -0.00376223)
(99.9192 0.040643 -0.00275684)
(99.9374 0.0320969 -0.00200949)
(99.9538 0.0248755 -0.0014538)
(100.006 0.0231781 3.54557e-05)
(100.026 0.0475349 -6.79994e-05)
(100.064 0.0754965 -0.000410161)
(100.123 0.109271 -0.00114056)
(100.208 0.151432 -0.00250561)
(100.327 0.203856 -0.00486435)
(100.493 0.267198 -0.0087945)
(100.719 0.337822 -0.0151015)
(101.021 0.401292 -0.0248872)
(101.406 0.416714 -0.0393997)
(101.842 0.325168 -0.0597626)
(102.211 0.0528011 -0.0864631)
(102.334 -0.413725 -0.115512)
(102.088 -0.879855 -0.143249)
(101.546 -1.1406 -0.166919)
(100.923 -1.19855 -0.182737)
(100.379 -1.15376 -0.189709)
(99.9447 -1.0675 -0.18875)
(99.5995 -0.960094 -0.181729)
(99.3275 -0.836158 -0.170209)
(99.1261 -0.698701 -0.155522)
(98.9968 -0.553434 -0.138907)
(98.9346 -0.414996 -0.121587)
(98.9279 -0.290031 -0.104454)
(98.9655 -0.182464 -0.0881579)
(99.0366 -0.0951318 -0.0731622)
(99.1296 -0.0288367 -0.0596044)
(99.2345 0.0172354 -0.0479357)
(99.3426 0.0463737 -0.0379898)
(99.447 0.0621261 -0.0297111)
(99.5429 0.0679938 -0.0229659)
(99.6278 0.0671416 -0.0175646)
(99.7008 0.062151 -0.0133036)
(99.762 0.0549289 -0.0099848)
(99.8124 0.0470852 -0.0074577)
(99.853 0.0393398 -0.00554216)
(99.8853 0.032149 -0.00409308)
(99.9106 0.0257748 -0.00300429)
(99.9303 0.0203146 -0.00219361)
(99.9481 0.0157917 -0.00159566)
(100.006 0.00792893 -9.44946e-05)
(100.028 0.0162055 -0.000287905)
(100.07 0.0257542 -0.000823099)
(100.134 0.0371472 -0.00170594)
(100.226 0.0513073 -0.00336864)
(100.352 0.0685955 -0.00610344)
(100.522 0.0887329 -0.010519)
(100.746 0.109829 -0.0172938)
(101.027 0.126195 -0.027506)
(101.356 0.124357 -0.0418644)
(101.693 0.0828765 -0.061022)
(101.954 -0.0208474 -0.0849412)
(102.031 -0.171776 -0.111093)
(101.849 -0.323212 -0.136715)
(101.437 -0.414442 -0.157956)
(100.926 -0.434873 -0.172506)
(100.439 -0.41408 -0.179575)
(100.027 -0.376567 -0.179406)
(99.693 -0.331582 -0.173492)
(99.4262 -0.282318 -0.163226)
(99.2245 -0.231359 -0.149881)
(99.0881 -0.181882 -0.134584)
(99.0143 -0.137748 -0.118365)
(98.9956 -0.0998879 -0.102029)
(99.0218 -0.0679182 -0.086373)
(99.0816 -0.0418158 -0.0719037)
(99.1642 -0.021364 -0.0589387)
(99.2595 -0.00592674 -0.0475313)
(99.3591 0.00475005 -0.0378106)
(99.4564 0.0114431 -0.0297018)
(99.5471 0.0150475 -0.0230614)
(99.6282 0.0163944 -0.0177119)
(99.6987 0.016187 -0.0134544)
(99.7586 0.0149549 -0.0100543)
(99.8083 0.0133385 -0.00754284)
(99.8487 0.0115225 -0.00564168)
(99.8811 0.00967488 -0.00418553)
(99.9067 0.00792997 -0.00307922)
(99.9268 0.00637057 -0.002255)
(99.9451 0.00507873 -0.00169947)
(99.9932 0.00602476 0.00754129)
(99.9702 0.0120876 0.0157414)
(99.9279 0.0183225 0.0251503)
(99.8655 0.0247479 0.036783)
(99.782 0.0310445 0.0516145)
(99.6758 0.0363418 0.0707601)
(99.5469 0.0388382 0.0951718)
(99.3988 0.0354295 0.126134)
(99.2421 0.0212496 0.164809)
(99.0982 -0.0102341 0.211371)
(99.0022 -0.0647728 0.264882)
(98.998 -0.141604 0.322574)
(99.1158 -0.220307 0.380322)
(99.3506 -0.28119 0.431133)
(99.6605 -0.311017 0.468827)
(99.9943 -0.3164 0.490606)
(100.316 -0.304323 0.495735)
(100.607 -0.279158 0.485509)
(100.854 -0.244226 0.462075)
(101.046 -0.202784 0.428269)
(101.176 -0.158169 0.386869)
(101.24 -0.115458 0.341211)
(101.243 -0.0778476 0.294545)
(101.195 -0.0465317 0.248969)
(101.111 -0.0214605 0.206236)
(101.002 -0.0022469 0.167727)
(100.882 0.0116271 0.133896)
(100.759 0.0205318 0.104943)
(100.64 0.0253689 0.0809383)
(100.531 0.0271342 0.061503)
(100.433 0.0267229 0.0460454)
(100.349 0.0248907 0.0338881)
(100.278 0.0222713 0.0246124)
(100.22 0.0193218 0.0176799)
(100.172 0.0163465 0.0125574)
(100.134 0.0135334 0.00878712)
(100.104 0.0109853 0.00595369)
(100.081 0.00877218 0.00395716)
(100.063 0.00690011 0.00259407)
(100.046 0.00534207 0.00164894)
(99.9934 0.0179002 0.00737096)
(99.971 0.0359761 0.0153217)
(99.9294 0.0547717 0.0245969)
(99.8676 0.0744571 0.0360943)
(99.7837 0.0942898 0.0508003)
(99.6746 0.111979 0.0698832)
(99.5382 0.122546 0.0946272)
(99.3748 0.116861 0.126517)
(99.1917 0.0798085 0.166949)
(99.0092 -0.0101657 0.216653)
(98.8688 -0.171331 0.274895)
(98.8426 -0.398562 0.337969)
(98.9802 -0.644936 0.403259)
(99.2642 -0.833915 0.460698)
(99.628 -0.934568 0.502071)
(100.004 -0.967976 0.524632)
(100.356 -0.950161 0.52854)
(100.67 -0.891425 0.515658)
(100.933 -0.798696 0.488658)
(101.134 -0.677288 0.450627)
(101.265 -0.533966 0.404882)
(101.322 -0.386422 0.355462)
(101.313 -0.251398 0.305537)
(101.252 -0.138079 0.257239)
(101.156 -0.0481611 0.212247)
(101.036 0.0179864 0.171824)
(100.905 0.0628382 0.136455)
(100.773 0.0893985 0.10642)
(100.647 0.101499 0.0816104)
(100.533 0.103097 0.0615922)
(100.432 0.09772 0.0457658)
(100.345 0.0882408 0.0334831)
(100.273 0.0768682 0.0241488)
(100.214 0.0651198 0.0171852)
(100.167 0.0539364 0.0120629)
(100.129 0.0438332 0.00833427)
(100.1 0.0350328 0.00564143)
(100.077 0.0275979 0.00374155)
(100.06 0.0214411 0.00242188)
(100.044 0.0163998 0.00150027)
(99.9938 0.0292456 0.007)
(99.9726 0.0589785 0.014556)
(99.933 0.0904526 0.0234364)
(99.8731 0.124374 0.0345181)
(99.7895 0.160245 0.0488343)
(99.6766 0.195441 0.0676862)
(99.5275 0.223325 0.0926765)
(99.3357 0.229882 0.125753)
(99.0992 0.187978 0.16907)
(98.8362 0.0482968 0.22453)
(98.6061 -0.299082 0.292699)
(98.5199 -0.782948 0.371632)
(98.6838 -1.23777 0.448698)
(99.0614 -1.52397 0.515547)
(99.5201 -1.65147 0.562058)
(99.97 -1.6746 0.586034)
(100.384 -1.61511 0.588436)
(100.75 -1.4936 0.571567)
(101.063 -1.32277 0.538516)
(101.309 -1.11234 0.492743)
(101.468 -0.881252 0.437497)
(101.526 -0.641455 0.379354)
(101.495 -0.422229 0.322278)
(101.401 -0.239894 0.268048)
(101.269 -0.095395 0.217821)
(101.115 0.0125335 0.173772)
(100.954 0.0859248 0.135925)
(100.799 0.130114 0.104314)
(100.655 0.15144 0.0786497)
(100.528 0.156067 0.0583241)
(100.419 0.149447 0.0425735)
(100.329 0.136045 0.0306045)
(100.256 0.119282 0.0216767)
(100.197 0.101574 0.0151321)
(100.151 0.0844818 0.010409)
(100.116 0.0688971 0.00704466)
(100.088 0.0552439 0.00467525)
(100.068 0.0436262 0.0030259)
(100.052 0.0339384 0.00189105)
(100.038 0.0259739 0.00111276)
(99.9945 0.0395372 0.00642796)
(99.9756 0.080096 0.0133731)
(99.94 0.123967 0.0215679)
(99.8848 0.172992 0.031867)
(99.8051 0.228023 0.0453203)
(99.692 0.288089 0.0633154)
(99.5319 0.348454 0.0877279)
(99.3048 0.396096 0.12104)
(98.9825 0.400882 0.166466)
(98.502 0.189833 0.227898)
(98.2478 -0.00281144 0.25889)
(97.9134 -0.699703 0.33092)
(97.993 -1.56169 0.407025)
(98.5171 -2.17212 0.475354)
(99.1268 -2.41495 0.523698)
(99.6952 -2.48816 0.550556)
(100.224 -2.43075 0.556868)
(100.703 -2.27837 0.54342)
(101.134 -2.05005 0.512756)
(101.508 -1.75599 0.468635)
(101.935 -1.31797 0.467047)
(101.988 -0.90866 0.397111)
(101.905 -0.552956 0.330374)
(101.738 -0.260762 0.269635)
(101.527 -0.0363492 0.215662)
(101.298 0.122322 0.168402)
(101.071 0.221385 0.12882)
(100.862 0.271867 0.0966494)
(100.681 0.286328 0.0711707)
(100.529 0.27647 0.0514833)
(100.405 0.252017 0.0366083)
(100.307 0.220387 0.0255963)
(100.231 0.186763 0.0175979)
(100.173 0.154425 0.0118912)
(100.129 0.125207 0.00788772)
(100.096 0.0998891 0.00512057)
(100.072 0.0786029 0.00323427)
(100.054 0.0610806 0.00196493)
(100.041 0.0468569 0.00112101)
(100.03 0.0354061 0.000561936)
(99.9956 0.0479762 0.0056554)
(99.9806 0.097668 0.0117557)
(99.9517 0.152644 0.0189481)
(99.906 0.216412 0.0280005)
(99.8374 0.292297 0.0398816)
(99.7349 0.383367 0.0559035)
(99.5799 0.49169 0.0779171)
(99.3403 0.615321 0.10849)
(98.9142 0.740593 0.151122)
(98.5727 0.73871 0.175477)
(97.7677 0.332902 0.237557)
(96.9515 -0.75649 0.319105)
(97.0101 -2.4758 0.411615)
(98.1321 -3.24904 0.487665)
(98.986 -3.46005 0.52975)
(99.6965 -3.49215 0.550963)
(100.329 -3.36892 0.554108)
(100.877 -3.15418 0.537151)
(101.386 -2.84988 0.502163)
(101.847 -2.43601 0.453951)
(102.216 -1.92528 0.398412)
(102.556 -1.194 0.363599)
(102.403 -0.690109 0.294061)
(102.145 -0.2934 0.229971)
(101.826 -0.00283108 0.175346)
(101.49 0.188491 0.130489)
(101.173 0.299021 0.0948103)
(100.895 0.348911 0.067333)
(100.666 0.35656 0.0467935)
(100.487 0.337304 0.0318304)
(100.35 0.302967 0.0211752)
(100.249 0.26207 0.0137466)
(100.177 0.220285 0.00867476)
(100.125 0.181055 0.00528209)
(100.089 0.146157 0.00305983)
(100.063 0.116247 0.00163765)
(100.045 0.0912825 0.000750333)
(100.033 0.0708326 0.00021329)
(100.025 0.0542757 -9.94734e-05)
(100.017 0.0409646 -0.00027352)
(99.9972 0.0536152 0.00470426)
(99.9875 0.109635 0.00974299)
(99.9687 0.172857 0.015622)
(99.9381 0.248551 0.0229407)
(99.8904 0.342981 0.0324485)
(99.8158 0.464625 0.0451404)
(99.6958 0.626119 0.0623801)
(99.4946 0.846833 0.0860255)
(99.0921 1.15782 0.118513)
(98.6869 1.31424 0.138072)
(97.738 1.45265 0.165237)
(95.6119 0.690591 0.218257)
(94.2935 -3.4816 0.316322)
(97.9553 -4.98085 0.397594)
(98.6113 -4.60698 0.406982)
(99.5459 -4.63938 0.41621)
(100.218 -4.40977 0.422435)
(100.696 -4.13271 0.40918)
(101.161 -3.81836 0.374733)
(101.709 -3.35963 0.326836)
(101.69 -2.49102 0.261095)
(100.083 -1.41024 0.133839)
(100.54 -0.656079 0.129444)
(100.807 -0.0416785 0.116732)
(100.888 0.383506 0.098733)
(100.836 0.625972 0.0787725)
(100.716 0.724392 0.0593955)
(100.575 0.724028 0.0425016)
(100.439 0.665033 0.0289251)
(100.322 0.57781 0.0186574)
(100.228 0.482747 0.0112824)
(100.158 0.391972 0.00623486)
(100.106 0.311623 0.00294826)
(100.071 0.243907 0.000920505)
(100.046 0.1887 -0.000246009)
(100.03 0.144715 -0.000848829)
(100.019 0.110199 -0.00110196)
(100.013 0.0833549 -0.00115036)
(100.008 0.0625299 -0.00108909)
(100.006 0.0462861 -0.000980339)
(99.9991 0.0555058 0.00363748)
(99.9961 0.1139 0.00746141)
(99.99 0.180741 0.0117928)
(99.9794 0.262482 0.0169948)
(99.9621 0.36744 0.0234749)
(99.9334 0.508128 0.0316912)
(99.8858 0.705159 0.0421363)
(99.8058 0.995479 0.0551434)
(99.6497 1.45086 0.0704215)
(99.3898 1.84373 0.0794806)
(98.6906 2.7763 0.0878595)
(95.5779 5.82462 0.0962546)
(77.0744 -4.19633 0.176847)
(65.1469 -6.51319 -0.26462)
(81.5856 -5.59502 -0.421723)
(85.253 -4.86658 -0.445118)
(87.853 -4.57242 -0.437216)
(89.785 -4.42138 -0.410934)
(91.1754 -4.2462 -0.371465)
(94.1157 -3.9385 -0.373898)
(95.8213 -2.48667 -0.398049)
(96.2053 -1.57619 -0.330448)
(96.737 -0.796819 -0.265469)
(97.3167 -0.209899 -0.206058)
(97.8801 0.182918 -0.155686)
(98.3809 0.408241 -0.115653)
(98.7979 0.506637 -0.0849385)
(99.1284 0.520093 -0.0619997)
(99.3804 0.483631 -0.0451628)
(99.5664 0.42283 -0.0329143)
(99.7002 0.35449 -0.0240355)
(99.7945 0.288481 -0.0176043)
(99.8599 0.229748 -0.0129377)
(99.9046 0.180095 -0.00954174)
(99.9349 0.13951 -0.00706182)
(99.9553 0.107063 -0.00524283)
(99.9691 0.0814728 -0.0039025)
(99.9782 0.0614109 -0.00290873)
(99.9852 0.0456391 -0.00216477)
(100.001 0.0532479 0.00253579)
(100.005 0.109346 0.00509839)
(100.013 0.173974 0.00780601)
(100.025 0.253688 0.0107478)
(100.041 0.356924 0.0139416)
(100.066 0.496087 0.0172437)
(100.104 0.690853 0.0201441)
(100.172 0.974576 0.0213571)
(100.326 1.40615 0.0179433)
(100.384 1.80216 0.0147148)
(100.687 2.76029 0.00103257)
(102.602 5.23679 -0.0443658)
(111.488 3.63357 -0.0980461)
(109.15 -7.64021 -0.181176)
(102.37 -7.68131 -0.328418)
(100.56 -5.79125 -0.425306)
(99.9377 -4.78664 -0.47157)
(99.5281 -4.22647 -0.486601)
(99.1084 -3.843 -0.478998)
(98.6126 -3.4855 -0.454647)
(98.0438 -2.81252 -0.464231)
(97.8027 -1.75593 -0.46935)
(97.77 -1.22487 -0.387521)
(97.8832 -0.777858 -0.309484)
(98.1063 -0.419775 -0.242047)
(98.3877 -0.149209 -0.185811)
(98.6815 0.0389993 -0.141254)
(98.9574 0.156731 -0.106251)
(99.1983 0.218927 -0.0792918)
(99.397 0.240985 -0.0588782)
(99.5539 0.236714 -0.0435922)
(99.6738 0.217105 -0.0322278)
(99.7632 0.190107 -0.0238191)
(99.8287 0.160991 -0.0176109)
(99.876 0.132936 -0.0130291)
(99.91 0.107617 -0.00964646)
(99.9343 0.0857066 -0.00714465)
(99.9516 0.0672711 -0.0052889)
(99.9639 0.0520411 -0.00390699)
(99.9743 0.0396098 -0.00287225)
(100.003 0.0466144 0.00148917)
(100.014 0.0957284 0.00286323)
(100.034 0.152316 0.00403931)
(100.066 0.221972 0.00485616)
(100.113 0.311486 0.00499091)
(100.183 0.429819 0.00379815)
(100.288 0.589385 3.25182e-05)
(100.456 0.80703 -0.00857457)
(100.77 1.10307 -0.0261775)
(100.998 1.32279 -0.0381794)
(101.856 1.71898 -0.0788527)
(103.479 1.51235 -0.153558)
(105.214 -0.668524 -0.260288)
(104.574 -3.39475 -0.374608)
(102.549 -4.15674 -0.473115)
(101.133 -3.91631 -0.537702)
(100.304 -3.52253 -0.567651)
(99.7381 -3.15182 -0.569493)
(99.2822 -2.80371 -0.550163)
(98.8773 -2.44562 -0.514799)
(98.5408 -2.04523 -0.46695)
(98.3767 -1.30695 -0.474495)
(98.3463 -0.958032 -0.402854)
(98.4065 -0.637412 -0.335268)
(98.5369 -0.365007 -0.273944)
(98.7083 -0.151934 -0.2201)
(98.8971 0.00117953 -0.1732)
(99.0858 0.101742 -0.134292)
(99.2606 0.158837 -0.102908)
(99.4136 0.183264 -0.078061)
(99.5423 0.185331 -0.0587109)
(99.6471 0.173582 -0.0438523)
(99.7304 0.154468 -0.0325727)
(99.7954 0.132488 -0.0240897)
(99.8453 0.110513 -0.0177545)
(99.8833 0.0901844 -0.0130515)
(99.9119 0.0722785 -0.00957222)
(99.9333 0.0570183 -0.00700202)
(99.9492 0.0442951 -0.0051019)
(99.963 0.0338324 -0.0036911)
(100.005 0.0361041 0.000653493)
(100.021 0.0741764 0.00107141)
(100.052 0.11789 0.00097823)
(100.099 0.171297 5.93813e-05)
(100.169 0.238761 -0.00224881)
(100.27 0.325205 -0.00690056)
(100.415 0.435509 -0.0154895)
(100.629 0.572181 -0.03061)
(100.952 0.728623 -0.0563802)
(101.416 0.779042 -0.0984414)
(102.02 0.632984 -0.162306)
(102.639 0.0427347 -0.251147)
(102.904 -1.00356 -0.358938)
(102.515 -1.8725 -0.47015)
(101.712 -2.18384 -0.557491)
(100.919 -2.1646 -0.608886)
(100.306 -2.02897 -0.626861)
(99.8461 -1.84472 -0.618817)
(99.4841 -1.63307 -0.59175)
(99.1948 -1.40171 -0.550589)
(98.977 -1.15752 -0.499219)
(98.8425 -0.916831 -0.441184)
(98.7894 -0.69297 -0.382133)
(98.8004 -0.490176 -0.324748)
(98.8618 -0.316858 -0.270666)
(98.9596 -0.176732 -0.22145)
(99.0795 -0.0689729 -0.178012)
(99.2079 0.00748745 -0.141099)
(99.3339 0.0572281 -0.11036)
(99.4511 0.0855632 -0.0852662)
(99.5553 0.0978821 -0.0651716)
(99.6447 0.0991019 -0.0493455)
(99.7194 0.0932964 -0.0370582)
(99.7804 0.0835977 -0.0276367)
(99.8294 0.0722465 -0.0204905)
(99.8681 0.0607059 -0.0151208)
(99.8982 0.049847 -0.0111095)
(99.9215 0.0401245 -0.00812561)
(99.9393 0.0317058 -0.00591143)
(99.9553 0.0245803 -0.00426678)
(100.006 0.0228312 3.26248e-05)
(100.026 0.0468516 -0.00027787)
(100.064 0.074355 -0.00125115)
(100.122 0.10761 -0.00334013)
(100.205 0.148922 -0.00728494)
(100.323 0.200268 -0.014127)
(100.484 0.262284 -0.0255133)
(100.705 0.331482 -0.0438355)
(101.001 0.393657 -0.0723398)
(101.377 0.409024 -0.114899)
(101.802 0.319521 -0.175147)
(102.164 0.0519335 -0.254469)
(102.287 -0.40519 -0.344204)
(102.049 -0.861003 -0.4331)
(101.519 -1.11324 -0.505714)
(100.913 -1.1678 -0.551239)
(100.384 -1.12294 -0.569139)
(99.9616 -1.03855 -0.564284)
(99.6248 -0.93394 -0.542147)
(99.3588 -0.813363 -0.507114)
(99.1611 -0.679666 -0.462904)
(99.0334 -0.538385 -0.413055)
(98.971 -0.403574 -0.361255)
(98.9628 -0.281679 -0.310102)
(98.998 -0.176771 -0.261446)
(99.0661 -0.0916366 -0.216736)
(99.1557 -0.0270639 -0.17675)
(99.2568 0.0178236 -0.141845)
(99.3616 0.0462032 -0.112232)
(99.4626 0.0615129 -0.0876777)
(99.5556 0.0671706 -0.0677062)
(99.638 0.0662704 -0.0517389)
(99.7089 0.0613448 -0.0391652)
(99.7685 0.054306 -0.0293972)
(99.8174 0.0465334 -0.0219355)
(99.857 0.038858 -0.0162784)
(99.8884 0.0317555 -0.0120086)
(99.9131 0.0254702 -0.00880644)
(99.9323 0.0200795 -0.00642026)
(99.9496 0.0155532 -0.00464837)
(100.006 0.00779819 -0.00030156)
(100.028 0.0159885 -0.000932022)
(100.069 0.0253438 -0.0023972)
(100.133 0.0365814 -0.00502389)
(100.223 0.0504088 -0.00981065)
(100.347 0.0673138 -0.0176665)
(100.514 0.087032 -0.0302266)
(100.733 0.107735 -0.0496995)
(101.008 0.123737 -0.0790086)
(101.33 0.122081 -0.120778)
(101.658 0.0817988 -0.177094)
(101.915 -0.0191651 -0.247504)
(101.993 -0.166533 -0.326369)
(101.816 -0.314139 -0.403688)
(101.416 -0.402247 -0.467851)
(100.918 -0.42162 -0.510556)
(100.444 -0.401141 -0.529611)
(100.043 -0.364554 -0.527816)
(99.7164 -0.320839 -0.509663)
(99.4551 -0.273031 -0.479106)
(99.2569 -0.223658 -0.439642)
(99.1222 -0.175778 -0.394502)
(99.0486 -0.133037 -0.346743)
(99.0289 -0.0962626 -0.298898)
(99.0529 -0.0651973 -0.253063)
(99.1098 -0.0398514 -0.210616)
(99.1892 -0.0201813 -0.172446)
(99.2812 -0.00515274 -0.139072)
(99.3775 0.00518737 -0.110607)
(99.4717 0.0116286 -0.0868533)
(99.5596 0.01507 -0.0674103)
(99.6384 0.0163247 -0.0517638)
(99.7069 0.0160867 -0.039349)
(99.765 0.0149176 -0.0295726)
(99.8133 0.0132736 -0.0221727)
(99.8527 0.011436 -0.0165451)
(99.8842 0.00959058 -0.0122581)
(99.9092 0.00786033 -0.00901653)
(99.9288 0.00631259 -0.00659459)
(99.9467 0.00497775 -0.00485044)
(99.9936 0.00590508 0.012053)
(99.9718 0.0118388 0.0250214)
(99.9317 0.017961 0.0401291)
(99.8728 0.0242775 0.0587804)
(99.7942 0.0304893 0.0824979)
(99.6943 0.0357887 0.113057)
(99.5733 0.0385107 0.152333)
(99.4346 0.035721 0.202402)
(99.288 0.0228008 0.265104)
(99.1537 -0.00643495 0.341161)
(99.0644 -0.0576024 0.429328)
(99.0616 -0.129768 0.524968)
(99.1732 -0.20348 0.619687)
(99.3941 -0.260068 0.702945)
(99.6852 -0.287474 0.764842)
(99.9988 -0.292245 0.800493)
(100.302 -0.280924 0.809072)
(100.576 -0.257524 0.792604)
(100.809 -0.225045 0.754564)
(100.992 -0.186537 0.699294)
(101.115 -0.145001 0.631607)
(101.177 -0.105029 0.556795)
(101.18 -0.0697479 0.479973)