/*--------------------------------*- C++ -*----------------------------------*\
| =========                 |                                                 |
| \\      /  F ield         | OpenFOAM: The Open Source CFD Toolbox           |
|  \\    /   O peration     | Version:  2306                                  |
|   \\  /    A nd           | Website:  www.openfoam.com                      |
|    \\/     M anipulation  |                                                 |
\*---------------------------------------------------------------------------*/
FoamFile
{
    version     2.0;
    format      ascii;
    arch        "LSB;label=32;scalar=64";
    class       volVectorField;
    location    "0.35";
    object      Force;
}
// * * * * * * * * * * * * * * * * * * * * * * * * * * * * * * * * * * * * * //

dimensions      [1 1 -2 0 0 0 0];

internalField   uniform (0 0 0);

boundaryField
{
    walls
    {
        type            calculated;
        value           uniform (0 0 0);
    }
    inlet
    {
        type            calculated;
        value           uniform (0 0 0);
    }
    outlet
    {
        type            calculated;
        value           uniform (0 0 0);
    }
    NASA
    {
        type            calculated;
        value           nonuniform List<vector> 
14179
(
(-0.014716 -0.135303 1.60871e-06)
(-0.0131921 -0.109017 7.85812e-07)
(-0.0682125 -0.551824 0.000151991)
(-0.100732 -0.811114 0.000680644)
(-0.0672211 -0.544147 7.82156e-05)
(-0.109476 -0.881443 0.000793536)
(0.203976 0.885921 -0.000111553)
(0.0912968 0.458034 -2.55418e-05)
(0.698304 3.4255 0.00490974)
(0.0955061 0.479165 -2.47578e-05)
(-0.0013936 -0.0130327 2.27257e-06)
(-0.0177974 -0.145707 0.000160401)
(0.130916 0.654351 -0.000504406)
(-0.0354156 -0.322599 0.000477281)
(0.0620665 0.310028 -0.00022399)
(1.37682 0.928726 0.00280813)
(1.39125 0.921862 -0.000132253)
(0.0213411 0.119519 -1.11638e-05)
(0.159393 0.945229 -6.15434e-05)
(1.2745 0.845043 -0.000163737)
(-0.0172709 -0.241591 -1.68918e-05)
(-0.0215741 -0.200556 -0.000147613)
(-0.0197485 -0.274132 -0.000265779)
(-0.00889291 -0.06472 4.63372e-07)
(-0.0133863 -0.110682 6.71198e-06)
(-0.0096042 -0.0698958 8.19686e-06)
(-0.0128902 -0.106316 0.000180785)
(-0.0150896 -0.108276 0.000190116)
(-0.0132394 -0.12111 0.000208332)
(-0.0154897 -0.213087 0.00337134)
(0.0464563 0.202863 4.02854e-05)
(0.0521708 0.245961 1.13573e-05)
(0.0560988 0.26449 -4.85966e-05)
(0.045823 0.199604 -1.42102e-05)
(0.0666578 0.244343 7.80271e-06)
(0.0671282 0.246184 2.12143e-05)
(0.033702 0.122183 4.62624e-06)
(0.0354214 0.128482 1.26107e-05)
(-0.00206429 -0.00987675 0.000131614)
(-0.013063 -0.0636096 0.000567865)
(0.171003 0.624899 -0.000205767)
(0.10017 0.36137 0.000228311)
(0.0982285 0.493017 1.15089e-05)
(-0.00619266 -0.0434755 1.9526e-06)
(-0.00562408 -0.0394932 -7.17101e-06)
(0.155604 0.781582 1.83979e-05)
(-0.00979305 -0.0678232 0.000154226)
(0.0973794 0.486522 4.75668e-05)
(0.0905537 0.452822 -6.81844e-05)
(0.106839 0.436483 -0.000297625)
(0.0838264 0.311602 -1.22206e-05)
(0.0834589 0.310219 -1.34514e-05)
(-0.0631314 1.5427 -6.91661e-05)
(1.38735 0.922302 -0.00068861)
(-0.0530766 1.30486 8.93363e-05)
(-0.00264287 1.33366 -4.83414e-05)
(0.0685351 1.03638 5.11873e-05)
(0.0641874 0.967109 -7.31432e-05)
(-0.00245787 1.14192 4.82422e-06)
(0.100506 0.394749 -9.92849e-06)
(0.162336 0.962529 -1.21665e-05)
(0.007589 0.027613 7.56819e-05)
(-0.0229181 0.566762 -1.66591e-05)
(0.921755 0.629103 0.0778556)
(-0.000822513 0.533159 -0.000310594)
(0.026925 0.410181 -0.000109631)
(0.127591 0.747483 0.00799158)
(-0.0148257 -0.148302 3.69915e-06)
(-0.0146585 -0.134857 1.9838e-06)
(-0.0991038 -0.798113 0.000666154)
(-0.0116682 -0.0924922 1.31241e-06)
(-0.0131722 -0.108859 1.47965e-06)
(1.32074 0.874678 -0.000815029)
(1.27292 0.843275 -0.000573424)
(0.346437 2.05594 -0.0021005)
(0.261213 1.54477 -0.00127141)
(-0.110773 -0.89304 -0.000686168)
(-0.0568876 -0.354382 0.000349198)
(-0.0558952 -0.350349 0.000329012)
(-0.0431391 -0.253274 0.00027205)
(0.157514 0.680236 -0.000647112)
(0.176938 0.765635 -0.000704467)
(0.760178 1.30514 -5.25515e-05)
(0.760659 1.30396 -0.0003231)
(0.0916495 0.459751 -5.7684e-06)
(0.0864065 0.414891 -1.40101e-05)
(-0.00053815 -0.00481128 -9.63146e-07)
(0.00117706 0.00564606 7.98289e-08)
(0.00120832 0.00582367 -1.40556e-06)
(-0.000524809 -0.00472116 2.0081e-07)
(0.0971421 0.487435 1.45281e-05)
(0.0914571 0.471429 -1.28049e-05)
(-0.0200209 -0.163848 0.00017796)
(-0.0134943 -0.0967646 0.000122935)
(-0.0203248 -0.145307 0.000156627)
(-0.012325 -0.0850559 0.00011731)
(-0.0181058 -0.124318 9.14247e-05)
(0.0859175 0.429053 -0.000429051)
(-0.0199798 -0.18204 0.000181376)
(-0.024504 -0.337791 0.000638195)
(-0.0207178 -0.291694 -0.000288977)
(0.0806 0.402868 -0.000373964)
(1.3741 0.922788 -0.00269762)
(0.0961551 0.566594 -8.36458e-06)
(0.103316 0.577436 -1.79537e-06)
(0.104907 0.586196 -6.73616e-06)
(0.195645 1.36169 5.59996e-06)
(0.105796 0.627312 -2.69167e-06)
(0.159719 0.947159 -2.98552e-06)
(0.0226505 0.0214013 2.20119e-05)
(0.353301 -0.130189 0.00354775)
(0.369277 -0.146398 0.00174544)
(0.0185496 0.0178444 -4.7442e-05)
(-0.00692966 -0.0297001 9.89444e-05)
(0.0212764 0.0784715 -1.57938e-05)
(0.00212724 0.00722835 6.36046e-05)
(0.0213135 0.0857765 7.38105e-05)
(-0.00962378 -0.0429712 5.79261e-05)
(-0.00208674 -0.0115524 9.0464e-05)
(0.0040338 0.0167781 3.25278e-05)
(-0.0183038 -0.0885672 8.64973e-05)
(-0.00118357 0.730031 -0.0005289)
(0.0406093 0.608171 -0.000492234)
(-0.00171234 0.978095 -0.000753686)
(0.0316741 0.480896 -0.000711979)
(-0.0347704 0.865706 -0.000836708)
(1.10077 0.7407 -0.000483538)
(-0.0471071 1.16063 -0.000877594)
(0.109885 0.650834 -0.00154607)
(0.1576 0.617521 -0.000790501)
(0.118293 0.462886 -0.000342241)
(0.109295 0.399028 -0.000271643)
(0.154882 0.566172 -0.000406913)
(0.063726 0.230079 -0.000154109)
(0.0871503 0.315183 -0.000293294)
(-0.0133559 -0.150439 -4.64233e-06)
(-0.0171513 -0.239603 6.82401e-07)
(-0.010727 -0.0825869 1.29468e-06)
(-0.00873813 -0.0635963 8.47189e-08)
(0.000315856 0.000293015 0.530493)
(-0.0129314 -0.101881 0.000177246)
(0.00028945 0.000281775 0.504424)
(-0.0143771 -0.109685 0.000197856)
(0.000575344 0.000466206 0.57429)
(-0.0129572 -0.129577 0.000290269)
(0.000798953 0.00091524 0.575527)
(-0.0120565 -0.139099 0.00109476)
(0.0519615 0.244967 -1.03133e-05)
(0.0387854 0.176383 -2.28278e-06)
(0.0390947 0.177808 -7.15239e-06)
(0.0460445 0.200524 -4.4086e-06)
(0.0452975 0.199522 -4.51649e-06)
(0.0455328 0.200564 -6.92162e-06)
(0.0665719 0.244001 1.46617e-05)
(0.0236989 0.117854 -5.6339e-06)
(0.0211558 0.107317 -4.80617e-06)
(0.0342661 0.124221 1.17808e-05)
(0.0292179 0.102719 3.78694e-06)
(-0.00648491 -0.0297027 0.000199666)
(-0.00551073 -0.0262621 0.000230797)
(0.000255087 0.000206747 0.321797)
(0.000261203 0.000184231 0.315221)
(0.000254136 0.000177919 0.31091)
(0.000282571 0.000200876 0.35825)
(0.0949728 0.323829 0.000450315)
(0.161679 0.565684 0.00415556)
(-4.04796e-05 0.000282114 0.339035)
(0.000191706 -0.000108601 0.307672)
(0.000119965 8.46247e-05 0.108938)
(0.082787 0.290813 0.000213214)
(0.283475 0.658515 6.43862e-06)
(0.166384 0.586559 6.93339e-05)
(0.164697 0.580643 -8.37903e-06)
(0.078378 0.365778 -6.53237e-06)
(0.0791927 0.369676 -2.59677e-08)
(0.13624 0.650375 -1.69267e-05)
(0.0761135 0.338761 -1.86252e-06)
(0.0798245 0.362067 -3.791e-06)
(0.0809374 0.367097 8.05378e-08)
(0.0766409 0.341155 -8.52181e-07)
(-0.00512786 -0.0358995 -8.85437e-07)
(-0.00611607 -0.0429418 -1.10008e-06)
(0.150839 0.798602 -3.79538e-06)
(0.265897 0.458723 0.0113944)
(0.000579115 0.00228333 0.862496)
(0.000347196 0.000987199 0.412191)
(0.0484719 0.141058 0.00017759)
(-0.0118534 -0.0740128 0.000215762)
(-0.0118606 -0.0749439 0.000359501)
(0.000650867 0.000951786 0.674599)
(0.000196725 -8.46887e-05 0.310366)
(0.0964162 0.495334 0.00103144)
(0.000336838 -0.000189756 0.373809)
(0.140235 0.737727 0.00550587)
(0.000386409 0.000332976 0.346422)
(0.000244009 0.00018801 0.328232)
(-0.000504471 -0.000161333 0.350893)
(6.84125e-05 0.000173126 0.112684)
(0.080743 0.386091 -7.96864e-05)
(0.103444 0.480983 0.000931194)
(0.000351502 -3.47797e-05 0.20619)
(9.33594e-05 0.000279455 0.108156)
(0.170194 0.715782 0.00202377)
(0.0838456 0.311662 -7.47688e-06)
(0.0798515 0.305668 -1.65391e-05)
(0.0951746 0.38797 -1.5796e-05)
(0.0668179 0.269108 -3.72362e-06)
(-0.844707 2.70061 -0.0207346)
(-0.0573928 1.40673 -2.58403e-05)
(-0.177574 1.65998 0.000725241)
(0.0687796 1.03786 -6.74779e-05)
(0.0535191 1.14443 -3.81388e-05)
(-0.00243745 1.20814 8.18486e-06)
(0.0313437 1.18335 -2.48478e-05)
(0.102703 1.12704 -1.22451e-05)
(0.132215 1.70661 -4.53911e-05)
(0.132272 1.70686 -3.96216e-05)
(0.102264 1.12252 -4.82905e-05)
(0.116249 1.18716 -2.85169e-05)
(0.123931 1.15259 1.36151e-05)
(0.124419 1.1576 -5.37294e-05)
(0.115204 1.17603 1.1296e-05)
(0.0724624 0.300159 1.05802e-05)
(0.0660024 0.261823 8.8372e-06)
(0.101584 0.399015 2.07154e-05)
(0.118259 0.800823 -1.71908e-05)
(0.11548 0.727099 -2.3146e-06)
(-0.000622328 -0.000560009 0.564876)
(0.000526812 0.0015812 0.891196)
(0.00116572 0.00375708 0.000136542)
(9.15211e-06 0.00211456 0.737584)
(0.00220173 0.00755468 0.000133665)
(0.000207434 0.0095963 0.273371)
(-0.0606208 0.580951 -0.000593217)
(0.00709371 -0.00436364 1.74653)
(0.000217608 0.00022297 0.303526)
(0.0140737 0.517439 -0.000356169)
(0.000611056 -0.00015919 0.244643)
(0.0231634 0.486366 -0.000198463)
(0.0613183 0.528302 -0.000351286)
(0.0610777 0.518693 -0.000315427)
(0.00026192 0.000190091 0.243754)
(0.00028541 0.000206493 0.26809)
(0.0574587 0.530915 -0.00025359)
(0.0521949 0.527418 3.24702e-05)
(0.0471849 0.517494 0.00134847)
(1.82016e-05 -0.0009191 0.222498)
(-0.0192177 -0.105588 0.00107525)
(-7.60497e-05 0.000266846 0.500331)
(0.0918012 0.510961 7.39325e-05)
(0.000251075 0.000177087 0.319899)
(0.000254482 0.000179397 0.321489)
(0.476414 -0.189732 -0.0039432)
(0.229208 0.216778 0.00246863)
(0.000170196 3.29051e-05 0.0819522)
(-0.0530435 -0.522291 0.000249069)
(-0.0700931 -0.566639 0.000274207)
(-0.0568588 -0.559283 0.000354507)
(-0.0704372 -0.569377 0.000281873)
(-0.0775738 -0.626261 0.000402207)
(-0.0594638 -0.584558 0.000435755)
(-0.0841145 -0.678425 0.000512237)
(0.17968 0.778347 -0.000725209)
(0.450367 2.20698 -0.00186785)
(0.183139 0.793755 -0.000733533)
(0.429631 2.1048 -0.00179902)
(-0.0673225 -0.544858 8.92901e-05)
(-0.042721 -0.266675 0.000241133)
(-0.104917 -0.844533 0.000720028)
(-0.0483796 -0.301562 0.000276434)
(1.38626 0.918523 -0.000210701)
(1.39055 0.921377 -0.000109709)
(0.210742 0.915199 -0.000104672)
(0.610312 2.99508 -0.000488227)
(0.629754 3.09064 -0.000339899)
(0.222889 0.967916 -0.000145284)
(0.429248 2.54594 -0.000276181)
(0.43258 2.56435 -0.000483734)
(-0.00197467 -0.015508 3.59489e-06)
(-0.00148018 -0.013067 1.99339e-06)
(0.0212026 0.11982 -1.77791e-05)
(0.0216643 0.121928 -1.27179e-05)
(0.0480928 0.208792 -5.78936e-05)
(0.0349677 0.158834 -4.20283e-05)
(0.058079 0.252924 -0.000109351)
(0.0268951 0.121227 3.17361e-06)
(-0.108605 -0.875036 0.000800271)
(-0.0693052 -0.504289 0.00045684)
(0.0158495 0.0740286 6.02689e-05)
(-0.0117173 -0.0648613 0.000117125)
(0.064198 0.234236 -0.00022878)
(0.0722271 0.263498 -0.000233577)
(0.034921 0.125967 -0.000124838)
(0.0403963 0.14571 -0.000129557)
(0.282665 1.27919 -0.000177945)
(0.171793 0.745485 4.36296e-05)
(0.329228 1.55725 -0.000252772)
(0.144776 0.726716 2.28571e-06)
(-0.0191661 -0.161295 0.000159867)
(-0.0441159 -0.326939 0.000281723)
(-0.0071583 -0.0522722 -1.85185e-05)
(-0.000470396 -0.00802055 2.85205e-06)
(-0.0194177 -0.132855 1.26541e-05)
(-0.0257937 -0.179999 6.41405e-05)
(0.0959491 0.392302 0.000181492)
(0.0831312 0.309011 -2.84928e-05)
(0.0833062 0.309658 -1.91251e-05)
(0.1073 0.440176 -0.000612576)
(0.163566 0.718403 -0.000101438)
(0.140214 0.646107 6.51797e-05)
(0.170942 0.75134 -6.55161e-05)
(0.179379 0.836482 6.88666e-05)
(-0.0026928 1.33359 -3.36404e-05)
(0.0546352 0.824867 -0.000103534)
(-0.00250195 1.20718 -0.000140353)
(0.0603761 0.90983 -9.26848e-05)
(-0.0635951 1.5551 -4.09149e-05)
(1.3895 0.92203 -0.000332415)
(-0.0603624 1.47692 -0.000147284)
(0.471835 4.04549 -0.00108862)
(0.105856 0.416029 1.37584e-05)
(0.090706 0.356516 -5.52708e-05)
(0.0692498 0.254044 -7.80957e-06)
(0.0672137 0.246541 1.74063e-05)
(0.0558312 0.292596 -5.79169e-05)
(0.181327 0.894964 -0.000943244)
(0.0206194 0.114621 -4.76985e-05)
(0.0461148 0.247359 -2.17447e-05)
(0.860609 5.38698 0.00360928)
(0.414723 2.77111 0.00101691)
(0.0368931 0.133871 -5.63421e-06)
(0.0351915 0.127682 1.20095e-05)
(1.25608 0.834748 0.000877076)
(0.0900917 0.62443 -0.000562752)
(0.255101 0.239353 -7.77652e-05)
(0.498142 -0.206475 -2.75692e-05)
(0.241881 0.227657 -0.000155615)
(0.51742 -0.214833 -0.000294338)
(0.0675506 0.247668 1.71011e-05)
(0.0311172 0.10944 1.29906e-05)
(0.0353794 0.128299 1.46413e-05)
(0.283418 0.658367 -5.04801e-06)
(0.272832 0.800835 -2.29115e-05)
(0.000474944 0.00115798 0.726352)
(0.000169554 0.000345823 0.361818)
(0.000332503 -0.000191885 0.383374)
(-0.194595 1.80442 -0.000106842)
(-0.0611658 1.4963 -1.04722e-05)
(1.38289 0.922716 -0.00141384)
(0.0278376 0.0263132 2.73209e-05)
(0.355033 -0.145907 0.000136175)
(0.365596 -0.148627 0.000592803)
(0.0257943 0.0243417 1.79653e-05)
(0.000249767 -3.2035e-05 0.543106)
(0.000212069 -3.54688e-05 0.379698)
(0.000216368 0.0001558 0.340967)
(0.000394359 0.000334584 0.364754)
(-0.0904273 -0.728832 0.000585518)
(1.35719 0.898891 -0.000844712)
(1.34311 0.889548 -0.000834275)
(1.31684 0.872112 -0.000813554)
(1.34199 0.888799 -0.000833521)
(0.398996 1.95362 -0.00168155)
(0.176386 0.763448 -0.000709675)
(0.178336 0.772387 -0.000719749)
(0.421765 2.06609 -0.00177364)
(0.270759 1.60153 -0.00134724)
(0.289654 1.71361 -0.00140317)
(-0.0249506 -0.147549 0.000147756)
(-0.031668 -0.186448 0.000186156)
(-0.0557562 -0.347188 0.000331319)
(-0.0503926 -0.313974 0.00029075)
(-0.0412604 -0.24216 0.000250434)
(-0.0341873 -0.201039 0.000202122)
(0.253384 2.15891 -0.00172187)
(0.240375 2.04749 -0.00175376)
(0.0244737 0.0903747 -2.93169e-05)
(0.0228743 0.0924024 -5.20929e-05)
(0.0343117 0.139533 0.00013577)
(0.0324589 0.120101 -6.47484e-05)
(0.0012907 0.00448447 6.7932e-05)
(0.0254987 0.108932 7.56933e-05)
(0.0346879 0.149752 2.31902e-06)
(0.0200057 0.0887274 7.30555e-05)
(0.0403773 0.149583 -9.68475e-05)
(0.0443017 0.180699 0.000134074)
(0.0347207 0.128523 -7.44075e-05)
(0.0424718 0.635784 -0.000501288)
(-0.00180341 1.02123 -0.000786319)
(-0.00201162 1.12573 -0.000864238)
(0.0467864 0.700619 -0.000556417)
(-0.0545137 1.34192 -0.00102117)
(1.30773 0.866044 -0.000798789)
(-0.057009 1.40301 -0.00106989)
(-0.0489388 1.20546 -0.000915192)
(-0.0533082 1.31243 -0.000998259)
(1.30457 0.863938 -0.000797938)
(-0.00207016 1.15414 -0.000886039)
(0.0511009 0.766342 -0.000601124)
(-0.00218605 1.2106 -0.000930706)
(0.0481006 0.720788 -0.000543863)
(0.226949 1.34159 -0.00111192)
(0.411146 2.56262 -0.00414785)
(0.237704 1.58495 -0.00132433)
(0.247396 1.46263 -0.00127074)
(0.405898 2.53382 -0.00206757)
(0.378086 2.3592 -0.00198028)
(0.195765 1.30357 -0.00190034)
(-0.0811273 -0.596265 0.000155488)
(-0.101715 -0.820031 0.00072591)
(-0.0667591 -0.443686 0.000415656)
(-0.0570321 -0.355753 0.000372868)
(-0.0801671 -0.538377 0.000413222)
(-0.0533225 -0.333514 0.000365271)
(-0.0246787 -0.137408 0.000179053)
(-0.0449651 -0.264406 0.000312044)
(0.00272799 0.00705688 0.000222632)
(-0.0475938 -0.281212 0.000300608)
(0.232179 1.04417 -0.000979811)
(0.180466 0.780436 -0.000694297)
(0.238924 1.12686 -0.000990691)
(0.178434 0.771906 -0.000697927)
(0.226315 1.02113 -0.000915283)
(0.242315 1.14151 -0.00133977)
(0.368977 1.80466 -0.00166508)
(0.106173 0.415383 -0.000320984)
(0.0899854 0.35197 -0.000304464)
(0.096154 0.350952 -0.000257384)
(0.0759637 0.277136 -0.000235527)
(0.0874078 0.34192 -0.000309571)
(0.0814173 0.318552 -0.000304619)
(0.0559433 0.201916 -0.000145022)
(0.0429576 0.154954 -0.000131492)
(0.12208 0.283109 -0.000165103)
(0.103417 0.239718 -0.000105261)
(-0.020658 -0.156763 0.000178619)
(-0.0181736 -0.130138 0.000156874)
(0.0814698 0.416829 -0.000657856)
(0.0861162 0.430238 -0.000356673)
(0.12446 0.657585 -0.00119472)
(-0.0191468 -0.189552 0.000122338)
(-0.0197638 -0.180476 0.000193118)
(-0.0170595 -0.188096 -0.000121083)
(-0.021028 -0.292355 0.000232001)
(0.0774083 0.370869 -0.000460285)
(0.0819946 0.409692 -0.000327915)
(-0.00449672 -0.0189428 6.6822e-05)
(0.00544703 0.0208885 9.53411e-05)
(-0.00110197 -0.00501358 7.20591e-05)
(0.0123157 0.0451163 3.53874e-05)
(0.0175049 0.64636 -0.000487563)
(-0.0014178 0.843447 -0.000670819)
(0.02675 0.566153 -0.000499504)
(0.0359413 0.539452 -0.000515197)
(-0.105104 0.997946 -0.00220693)
(-0.0410944 1.01523 -0.000838897)
(1.21984 0.814901 0.00236724)
(-0.457519 1.48833 -0.000872693)
(-0.0449699 1.10889 -0.000860055)
(-0.140484 1.30554 -0.000948999)
(-0.0120709 -0.0631148 0.000115208)
(-0.00893758 -0.0460053 9.42666e-05)
(-0.0107088 -0.0548809 0.000107726)
(-0.0102759 -0.0539287 0.000102781)
(-0.0249792 -0.137229 5.03268e-05)
(0.000639778 0.000574156 0.386454)
(0.0583719 0.393223 -0.000341018)
(0.092095 0.638425 -0.000670658)
(0.0604341 0.406845 -0.000418084)
(0.127432 0.465401 -0.00029908)
(0.155143 0.566896 -0.000378934)
(0.0735965 0.265806 -0.000166635)
(0.0625095 0.218838 -0.000145286)
(0.0823228 0.288755 -0.000375159)
(0.0900909 0.325585 -0.000227936)
(0.448486 -0.187351 -0.00279656)
(0.218259 0.200491 0.000799939)
(0.266209 0.247685 0.000120412)
(0.521867 -0.217641 -0.00112217)
(0.233937 1.01493 -0.000845483)
(0.578692 2.83801 -0.00223554)
(0.231917 1.00625 -0.000807047)
(0.568738 2.78913 -0.00226131)
(-0.067809 -0.548648 0.000125353)
(-0.00275864 -0.0202988 7.2996e-06)
(-0.00242142 -0.0182189 5.50216e-06)
(0.238695 1.03633 -0.00021314)
(0.64314 3.15594 -0.000880718)
(0.250171 1.08622 -0.000282446)
(-0.0614048 -0.446978 0.000379068)
(0.176113 0.774374 -0.000116058)
(0.143072 0.660299 -0.000109691)
(0.176545 0.776291 -0.000133722)
(0.142847 0.659205 -9.95226e-05)
(0.0594072 0.217793 -4.83304e-05)
(0.0638079 0.233897 -6.2035e-05)
(-0.0342299 -0.251116 3.76414e-05)
(0.161321 0.798472 -0.000129913)
(0.0630516 0.331588 -5.26869e-05)
(0.0302949 0.109846 -2.44319e-05)
(0.0321531 0.116571 -3.27376e-05)
(1.39111 0.92188 -0.000142898)
(0.0323796 0.0304566 -1.87309e-06)
(0.337883 -0.1402 -8.43622e-06)
(0.0272934 0.0256484 -1.1617e-05)
(0.342945 -0.14224 -8.10799e-06)
(-0.0224098 -0.141452 0.000117477)
(-0.0246576 -0.155311 0.000131737)
(-0.0406748 -0.25406 0.00022879)
(-0.095099 -0.766133 0.000629406)
(-0.0357723 -0.223835 0.000198817)
(0.185047 0.80219 -0.000740609)
(0.196253 0.851482 -0.00076632)
(0.10081 0.441532 -0.000304652)
(0.0753869 0.346288 -0.000236655)
(0.10434 0.457108 -0.000319227)
(0.0720476 0.330814 -0.000221406)
(0.0419227 0.191186 -8.07823e-05)
(0.0666203 0.290652 -0.000149703)
(0.0734784 0.320929 -0.000182826)
(0.0477567 0.218269 -0.000111485)
(0.058149 0.212839 -0.000240088)
(0.0565641 0.206901 -0.000232584)
(0.0624008 0.227705 -0.000227826)
(0.0585063 0.213589 -0.000225574)
(0.0131163 0.0669458 -2.41156e-05)
(0.0664174 0.325999 -0.000205344)
(-0.0687789 -0.500322 0.00044636)
(0.0233652 0.111681 1.12623e-05)
(-0.00795583 -0.0447576 8.97862e-05)
(0.0304241 0.146925 -2.97975e-05)
(0.0315349 0.114164 -0.000134584)
(0.0301906 0.109213 -0.000128444)
(0.0336979 0.121567 -0.000123982)
(0.031086 0.112196 -0.000122232)
(1.31977 0.874027 -0.00081156)
(1.28694 0.852295 -0.000714423)
(0.13204 0.124418 -0.000120864)
(0.359214 -0.149094 8.45708e-05)
(0.36963 -0.153416 8.87017e-05)
(0.119675 0.112756 -0.0001134)
(0.47663 -0.197585 6.20387e-05)
(0.225355 0.212311 -0.000171208)
(0.210978 0.198833 -0.000167394)
(0.456672 -0.189418 7.45504e-05)
(1.08816e-05 -0.0182484 5.97646e-06)
(-4.30546e-05 -0.0222244 7.95087e-06)
(-0.052851 -0.520522 0.000204588)
(8.80611e-06 -0.0183189 1.00988e-05)
(-0.000152312 -0.03037 1.15498e-05)
(-0.0692918 -0.560321 0.000223836)
(-0.0547885 -0.539178 0.000306968)
(-0.000224921 -0.0355663 2.66993e-05)
(-8.26351e-05 -0.0250346 1.704e-05)
(-0.073025 -0.589982 0.000335077)
(-0.0736104 -0.59465 0.000343103)
(-2.29722e-05 -0.0204563 2.02532e-05)
(-0.0590885 -0.580933 0.000406967)
(-0.000394362 -0.0480687 3.63477e-05)
(-0.0822175 -0.663296 0.000470298)
(1.37687 0.911991 -0.000820942)
(1.37415 0.910183 -0.000831747)
(1.37092 0.908032 -0.000841794)
(1.37601 0.911414 -0.000834686)
(0.233143 1.01155 -0.000858757)
(0.52953 2.59702 -0.00213871)
(0.560267 2.74765 -0.00223998)
(0.189105 0.820747 -0.000716153)
(0.18049 0.78199 -0.000726199)
(0.237782 1.07384 -0.000961542)
(0.268716 1.26873 -0.00109548)
(0.443808 2.17466 -0.00184563)
(0.181926 0.788351 -0.000729876)
(0.24503 1.107 -0.00098196)
(0.258061 1.21806 -0.00106213)
(0.436254 2.13745 -0.00182707)
(1.38792 0.919577 -0.000371474)
(1.38445 0.9173 -0.000307108)
(1.38491 0.917622 -0.000223652)
(1.38372 0.916822 -0.000296801)
(0.420833 2.49454 -0.00050831)
(0.430876 2.55405 -0.000551587)
(-0.00205962 -0.0159996 3.93957e-06)
(-0.067671 -0.547561 0.000115958)
(-0.00232477 -0.0176215 5.07951e-06)
(0.0204617 0.115546 -3.18416e-05)
(0.0208067 0.117554 -2.7434e-05)
(0.0211305 0.11943 -1.98795e-05)
(0.0208981 0.118088 -2.56334e-05)
(0.227652 0.988623 -0.000170716)
(0.238572 1.0359 -0.000210058)
(0.646364 3.17175 -0.000621098)
(-0.0557799 -0.371013 0.000322341)
(-0.0445048 -0.277673 0.000251927)
(-0.0648986 -0.472197 0.000407036)
(-0.0465207 -0.2901 0.000264585)
(-0.0604185 -0.401569 0.000354852)
(0.493855 4.22634 -0.000834627)
(0.476352 4.07728 -0.000595261)
(0.0830793 0.308814 -3.30738e-05)
(0.107357 0.440439 0.000517892)
(0.107515 0.441097 -0.000626672)
(0.0830508 0.308706 -4.33469e-05)
(0.139212 0.641799 -0.000107174)
(0.17444 0.76688 -8.27614e-05)
(0.175753 0.772749 -0.000101918)
(0.142343 0.65673 -9.00115e-05)
(0.10752 0.441113 0.000498073)
(0.0830867 0.308836 -5.66655e-05)
(0.107564 0.441283 -0.000647025)
(0.0830485 0.308697 -4.70696e-05)
(0.0532968 0.805625 -9.33708e-05)
(-0.00236435 1.1365 -0.000145129)
(-0.00213295 1.01294 -0.000134396)
(0.0534592 0.807758 -0.000116516)
(-0.0540971 1.32354 -0.000191252)
(1.38803 0.919699 -0.000173713)
(-0.0560435 1.37156 -0.000238354)
(-0.0584096 1.42901 -0.000159453)
(-0.0541762 1.32538 -0.000180758)
(1.38954 0.920699 -0.000156302)
(-0.0021257 1.02098 -0.000137829)
(0.060931 0.919931 -0.000181228)
(-0.00227882 1.10679 -0.000180467)
(0.0549186 0.829563 -0.000130574)
(0.295328 1.33659 -0.000119666)
(0.21162 0.919019 -0.000111457)
(0.612451 3.00577 -0.00040495)
(0.361311 1.70887 -0.00026554)
(0.340073 1.60854 -0.000107415)
(0.624418 3.06463 -0.000435299)
(0.216316 0.939401 -0.000131031)
(0.317569 1.43713 -0.000211396)
(0.0831011 0.326575 -7.18529e-05)
(0.078351 0.307773 -7.19818e-05)
(0.0684331 0.251004 -5.21186e-05)
(0.0669911 0.245568 -6.84754e-05)
(0.0775362 0.304562 -7.03295e-05)
(0.760803 4.76165 -0.000845816)
(0.444775 2.63751 -0.000402799)
(0.767824 4.80627 -0.000715271)
(0.500959 3.35041 -0.000627636)
(0.498531 3.33407 -0.000472143)
(0.444632 2.63636 -0.000410073)
(-0.0322595 -0.237359 2.794e-05)
(-0.0208602 -0.141141 2.22684e-05)
(-0.00183492 -0.0147276 3.08412e-06)
(-0.0200284 -0.136271 1.76494e-05)
(-0.00177671 -0.0145508 2.86928e-06)
(0.0622832 0.327015 -3.13511e-05)
(0.15879 0.785094 -7.55279e-05)
(0.161225 0.797677 -0.000101911)
(0.0472334 0.254475 -3.93972e-05)
(0.0213078 0.120357 -1.58963e-05)
(0.0472434 0.254015 -2.70099e-05)
(0.0213564 0.120471 -1.35593e-05)
(0.0373457 0.135493 -3.34468e-05)
(0.0342503 0.124175 -3.76723e-05)
(0.0664082 0.242283 -0.000230432)
(0.0688931 0.251332 -0.000231596)
(0.032346 0.113123 -0.000112892)
(0.0364263 0.13139 -0.000126165)
(0.0383188 0.134016 -0.000118136)
(0.0381343 0.137545 -0.000127329)
(0.272184 0.79898 -7.75942e-05)
(0.272651 0.800303 -6.28997e-05)
(0.283593 0.658816 -4.89152e-05)
(0.283684 0.659027 -5.21125e-05)
(-0.195815 1.81552 -9.51548e-05)
(-0.06311 1.54443 -0.00011409)
(1.39055 0.921895 -0.000199078)
(-0.829129 2.6971 -0.000196904)
(-0.0620005 1.51715 -0.000132652)
(-0.191052 1.77055 -0.000161272)
(0.0698668 0.25626 1.16918e-05)
(0.0684059 0.250917 1.68201e-05)
(0.0359888 0.130547 6.45309e-06)
(0.0320953 0.112934 -8.22054e-06)
(0.0308083 0.108377 1.25169e-05)
(0.0354157 0.128493 8.95046e-06)
(0.408244 2.41814 -0.00192943)
(0.38849 2.30085 -0.00188051)
(-0.00161536 -0.0123993 2.21792e-05)
(-0.00420717 -0.0274123 3.57077e-05)
(-0.0286993 -0.180231 0.000156557)
(-0.0256996 -0.161735 0.000137816)
(-0.00883261 -0.0542031 6.01835e-05)
(-0.00541229 -0.0343923 4.17243e-05)
(1.35575 0.897947 -0.000843577)
(1.36539 0.904348 -0.000846004)
(1.372 0.90874 -0.000843327)
(1.36603 0.904777 -0.000845674)
(-0.0225391 -0.133583 0.000134531)
(-0.0169075 -0.100968 0.000103311)
(0.350759 2.0765 -0.00168037)
(0.377722 2.23684 -0.00182823)
(-0.0936835 -0.754831 0.000616721)
(-0.0300835 -0.188766 0.000164602)
(-0.0340507 -0.213222 0.00018865)
(-0.0104257 -0.0634303 6.83841e-05)
(-0.014913 -0.0894183 9.26752e-05)
(0.197529 0.857044 -0.000753233)
(0.519512 2.54783 -0.00212291)
(0.190418 0.826355 -0.000723925)
(0.482334 2.36482 -0.00200653)
(0.282856 2.41089 -0.00193748)
(0.291134 2.48184 -0.00200353)
(0.0647269 0.264739 0.000155843)
(0.0524999 0.194724 -0.000141236)
(0.0553079 0.205179 -0.000151155)
(0.060826 0.248689 -0.000488078)
(0.0958596 0.419693 -0.000283596)
(0.063536 0.291387 -0.000184405)
(0.0914729 0.400342 -0.000263836)
(0.0675718 0.310078 -0.000202977)
(0.0585965 0.217425 -0.00016237)
(0.056246 0.208672 -0.000154502)
(0.0694864 0.284325 0.000162516)
(-0.00252158 1.37178 -0.00105032)
(0.0573399 0.860412 -0.000669952)
(0.0586322 0.879901 -0.000683079)
(-0.00246555 1.34505 -0.00103151)
(-0.0642234 1.57951 -0.00120073)
(1.35349 0.896435 -0.000841286)
(-0.0649485 1.59717 -0.00121387)
(-0.0025411 1.38097 -0.00105656)
(0.0600787 0.901741 -0.000698284)
(-0.00257236 1.39415 -0.00106612)
(0.0590579 0.886325 -0.000687435)
(-0.0637925 1.56897 -0.00119341)
(1.35058 0.894505 -0.000839164)
(-0.0626011 1.53983 -0.00117267)
(0.316793 2.70128 -0.00213823)
(0.310962 2.65136 -0.00210551)
(0.0421702 0.156261 -0.000103828)
(0.0464478 0.172189 -0.000119421)
(0.054357 0.222074 -0.000427274)
(0.051293 0.19023 -0.000137096)
(0.059022 0.241266 0.000148069)
(0.0478972 0.177585 -0.000124683)
(0.0801233 0.350257 -0.000214275)
(0.0581809 0.266582 -0.000160777)
(0.0852912 0.373066 -0.000237671)
(0.0534938 0.244864 -0.000138579)
(-0.0576734 1.4192 -0.00108247)
(-0.0599458 1.47488 -0.00112289)
(1.32919 0.880301 -0.000821723)
(0.0519325 0.778917 -0.000610919)
(-0.00222198 1.22637 -0.00094308)
(-0.0023328 1.28162 -0.000983236)
(0.0542562 0.813913 -0.000635984)
(-0.00236621 1.29786 -0.000995602)
(0.0567855 0.852031 -0.000663989)
(0.0550528 0.825916 -0.000644664)
(-0.00244004 1.33358 -0.00102332)
(-0.0606136 1.49123 -0.00113543)
(1.33467 0.883939 -0.000825845)
(-0.0621229 1.52816 -0.00116439)
(0.0757349 0.296847 -0.000303853)
(0.0760264 0.297852 -0.000304411)
(0.0560297 0.20476 -0.000227232)
(0.0562053 0.205542 -0.000230695)
(0.0758653 0.297539 -0.00030384)
(0.24194 1.14137 -0.00100676)
(0.406256 1.98954 -0.00174054)
(0.227513 1.02675 -0.00092436)
(0.176407 0.763718 -0.000718389)
(0.177439 0.768356 -0.000719479)
(0.234781 1.06014 -0.000951451)
(0.414593 2.03073 -0.0017441)
(0.25377 1.19768 -0.00104897)
(0.077509 0.303421 -0.000303403)
(0.0770945 0.301847 -0.000303938)
(0.0760607 0.297938 -0.000303849)
(0.0561227 0.205053 -0.000226181)
(0.0576871 0.210638 -0.000225557)
(0.26359 1.75806 -0.00143813)
(0.420823 2.62744 -0.00216812)
(0.277044 1.63877 -0.00135539)
(0.283666 1.67808 -0.00138483)
(0.451397 2.81879 -0.0022929)
(0.441669 2.758 -0.00225299)
(0.270242 1.80256 -0.00146023)
(-0.0025038 -0.0163641 4.35645e-05)
(-0.0270091 -0.159472 0.000159147)
(0.0502158 0.245433 -0.00012932)
(0.00511662 0.024596 1.62495e-05)
(-0.0294412 -0.173556 0.000173047)
(-0.010091 -0.0576494 8.36034e-05)
(-0.0659819 -0.438357 0.000402427)
(-0.0540223 -0.3364 0.000317299)
(-0.066046 -0.480471 0.000417963)
(-0.0522528 -0.325451 0.000302602)
(-0.0619976 -0.411979 0.000367592)
(0.462681 2.88945 -0.00234194)
(0.472088 2.94836 -0.00238019)
(0.293789 1.96013 -0.00156531)
(0.287787 1.91997 -0.00153814)
(-0.0218443 -0.121766 0.000153824)
(-0.0388833 -0.228291 0.000231773)
(0.0436012 0.212534 -9.69762e-05)
(0.0018281 0.00718317 3.31796e-05)
(0.0374009 0.181679 -6.7132e-05)
(-0.0365046 -0.214474 0.000215548)
(-0.0130968 -0.074009 9.99935e-05)
(0.0295472 0.10677 -0.000123698)
(0.0298689 0.10802 -0.000126841)
(0.029583 0.10687 -0.000122882)
(0.0305381 0.110241 -0.000122175)
(0.117413 0.343918 -0.000212907)
(0.143193 0.419651 -0.000294166)
(0.191863 0.445265 -0.000347814)
(0.186527 0.432872 -0.000335919)
(0.159074 0.369108 -0.000275007)
(0.167241 0.388086 -0.000297001)
(0.150173 0.44016 -0.000315614)
(-0.603474 1.96461 -0.0014227)
(1.31451 0.870539 -0.000803948)
(-0.0562797 1.38516 -0.00105491)
(-0.168406 1.56411 -0.00117857)
(-0.575895 1.875 -0.00141897)
(-0.505894 1.6465 -0.00109811)
(-0.524072 1.70602 -0.00124178)
(-0.145683 1.35378 -0.00101688)
(-0.0504485 1.24243 -0.000941559)
(1.29735 0.859135 -0.0007678)
(-0.558645 1.81898 -0.00132326)
(0.0881821 0.32178 -0.000244164)
(0.0812278 0.296382 -0.000241758)
(0.145719 0.137321 -0.000128972)
(0.397933 -0.165166 9.90047e-05)
(0.382828 -0.158894 9.37978e-05)
(0.15992 0.150715 -0.000135472)
(0.0546973 0.19143 -0.000134116)
(0.0509604 0.183875 -0.000137154)
(0.0463794 0.167321 -0.000135248)
(0.0410948 0.143733 -0.00012007)
(0.191883 0.180855 -0.000155128)
(0.415886 -0.172608 9.43597e-05)
(0.434459 -0.180279 9.08475e-05)
(0.176118 0.165993 -0.000143293)
(0.62216 3.05307 -0.000915572)
(0.249073 1.08146 -0.000308854)
(0.210769 0.915239 -0.000312831)
(0.620097 3.04284 -0.00108024)
(0.235661 1.02292 -0.000522581)
(0.696087 3.41492 -0.00168832)
(0.238534 1.03542 -0.000521839)
(0.673698 3.30495 -0.00178575)
(0.190496 0.82698 -0.000583007)
(0.638499 3.13201 -0.00217176)
(0.215431 0.935058 -0.000652446)
(0.56982 2.79511 -0.00198034)
(-0.0680915 -0.550875 0.000143162)
(-0.0349114 -0.255916 7.21531e-05)
(-0.048192 -0.351601 0.000270273)
(-0.0600856 -0.437456 0.000369014)
(-0.0977811 -0.787554 0.00065333)