/*--------------------------------*- C++ -*----------------------------------*\
| =========                 |                                                 |
| \\      /  F ield         | OpenFOAM: The Open Source CFD Toolbox           |
|  \\    /   O peration     | Version:  2306                                  |
|   \\  /    A nd           | Website:  www.openfoam.com                      |
|    \\/     M anipulation  |                                                 |
\*---------------------------------------------------------------------------*/
FoamFile
{
    version     2.0;
    format      ascii;
    arch        "LSB;label=32;scalar=64";
    class       volScalarField;
    location    "0.35";
    object      p;
}
// * * * * * * * * * * * * * * * * * * * * * * * * * * * * * * * * * * * * * //

dimensions      [0 2 -2 0 0 0 0];

internalField   nonuniform List<scalar> 
111542
(
59.9382
61.2365
64.3347
69.4115
76.5565
85.9926
97.8911
112.295
128.723
145.768
160.884
170.084
169.337
157.415
137.305
114.616
93.229
74.6348
59.0514
46.4182
36.3982
28.6804
22.8665
18.4395
15.0701
12.4887
10.4138
8.80575
7.60801
6.68843
5.96025
5.3642
4.91009
4.52568
4.15821
3.76531
3.29359
2.73856
2.00041
0.990367
58.9001
60.1602
63.2307
68.2536
75.3995
84.9948
97.4211
112.938
131.387
151.7
171.191
184.317
183.519
167.504
142.028
115.594
92.2292
72.6047
56.5965
43.928
34.1659
26.7955
21.26
17.1584
14.0691
11.6774
9.80778
8.36794
7.26411
6.39991
5.70849
5.14742
4.69014
4.29513
3.92175
3.53189
3.08236
2.52877
1.80197
0.847022
56.8426
58.039
60.9759
65.8297
72.88
82.6446
95.8427
113.286
135.635
162.715
191.178
212.426
212.289
186.902
151.051
118.259
91.1569
69.4553
52.5844
39.7943
30.3134
23.654
18.8485
15.2512
12.3053
9.92541
8.13747
6.83936
5.88474
5.16716
4.62168
4.20328
3.87458
3.60083
3.34633
3.07452
2.74174
2.2928
1.65506
0.750788
53.8162
54.8904
57.5449
62.0017
68.6505
78.225
91.8804
111.319
138.936
177.944
212.814
255.149
260.253
219.028
167.047
127.14
94.4919
69.4666
51.0589
37.6523
23.9591
17.7961
15.2856
13.7129
11.6085
9.48273
7.79407
6.52474
5.53946
4.75818
4.14128
3.65561
3.26938
2.95077
2.67024
2.39596
2.08375
1.67272
1.0693
0.150409
49.9285
50.7996
52.9703
56.6769
62.3611
70.8728
83.6631
103.16
133.388
178.094
254.953
340.562
362.878
253.696
169.489
122.173
83.3575
56.9409
39.5732
28.4725
21.3111
7.00198
5.69035
5.92497
5.24705
4.46973
3.92333
3.52098
3.18608
2.90616
2.67955
2.49589
2.344
2.21002
2.0829
1.94779
1.77549
1.51323
1.0417
0.0585158
45.3718
45.9517
47.4131
49.95
53.9397
60.1205
69.8294
85.5315
112.008
166.765
260.512
454.957
616.623
240.049
167.799
113.261
66.7149
40.6037
25.3749
16.3688
14.2404
16.5058
14.2754
8.74899
5.24532
3.58958
2.68759
2.04234
1.55851
1.22067
0.996329
0.848768
0.752047
0.689019
0.647367
0.615969
0.581855
0.533859
0.479977
0.54683
40.4286
40.6502
41.2159
42.2206
43.8468
46.4363
50.5811
57.2833
68.2725
107.902
184.236
416.632
1944.86
-433.183
194.437
80.8465
31.9233
15.894
7.66283
-1.92596
-4.43328
13.3604
13.8229
8.74001
5.45969
4.1549
3.55392
3.09819
2.72419
2.44672
2.24727
2.09681
1.97763
1.87838
1.79266
1.71573
1.63528
1.5457
1.44802
1.39664
35.4755
35.3065
34.8943
34.2076
33.1773
31.632
29.1743
24.8708
16.3594
18.8901
2.68276
-156.348
-990.532
-1045.6
-312.051
-100.136
-45.8404
-25.9781
-16.9408
-10.6033
-3.40428
-8.7117
-6.42968
-4.5255
-3.61829
-2.72478
-1.82843
-1.09851
-0.537101
-0.0863779
0.287909
0.59892
0.855156
1.06286
1.22613
1.34413
1.40196
1.36845
1.17623
0.693448
30.9096
30.3764
29.043
26.7733
23.2957
18.052
10.0217
-2.68472
-23.6803
-46.7418
-119.907
-263.894
-473.728
-503.853
-319.234
-174.737
-100.503
-61.4214
-39.4734
-25.5096
-15.4433
-8.84027
-4.79355
-1.83081
-0.0485127
1.05212
1.83803
2.4003
2.77542
3.01514
3.16376
3.24788
3.28202
3.27359
3.22325
3.12469
2.9544
2.66355
2.15562
1.23503
27.1224
26.2823
24.1987
20.6629
15.29
7.35081
-4.36375
-21.8275
-48.3224
-89.4531
-147.149
-219.974
-285.677
-294.621
-237.973
-165.53
-110.552
-75.1157
-52.029
-35.9804
-24.5863
-16.9983
-11.962
-8.32164
-5.70775
-3.83839
-2.43207
-1.33804
-0.488055
0.17042
0.684261
1.0875
1.40061
1.63435
1.78937
1.86015
1.82427
1.63918
1.24337
0.585846
24.4191
23.3682
20.7672
16.3826
9.78725
0.250112
-13.3394
-32.4819
-59.0563
-94.9492
-140.172
-189.607
-228.711
-236.576
-206.965
-158.77
-114.693
-82.3385
-59.4897
-42.7756
-30.3243
-21.1947
-14.5045
-9.56771
-5.93654
-3.28793
-1.34624
0.0878759
1.14254
1.90839
2.45643
2.83997
3.09498
3.24206
3.28172
3.22566
3.05088
2.71032
2.12898
1.1692
23.0125
21.8655
18.9898
14.2056
7.01054
-3.23349
-17.5526
-37.1045
-63.0693
-95.8406
-133.98
-172.163
-200.483
-207.323
-188.385
-153.029
-115.903
-85.5475
-62.8429
-45.8195
-32.9232
-23.2672
-16.1672
-10.9835
-7.24152
-4.52821
-2.54613
-1.08484
-0.00122911
0.802451
1.39704
1.83376
2.14834
2.36591
2.43361
2.42782
2.30739
2.02151
1.51767
0.736402
59.362
60.6029
63.6189
68.5195
75.4104
84.5067
96.0126
109.93
125.786
142.271
156.923
165.854
165.105
153.579
134.123
112.104
91.3203
73.1666
57.9155
45.5196
35.7252
28.1588
22.4081
18.0674
14.7654
12.2007
10.1793
8.61397
7.42397
6.5114
5.79883
5.23367
4.78267
4.40013
4.04301
3.67127
3.2412
2.70561
1.98547
0.981096
58.3358
59.5528
62.5216
67.3705
74.2669
83.5296
95.5347
110.532
128.374
148.058
166.992
179.826
178.926
163.367
138.68
113.051
90.3176
71.1378
55.4619
43.0604
33.5152
26.264
20.796
16.7728
13.7568
11.4117
9.577
8.16157
7.07228
6.22109
5.54451
4.99977
4.55383
4.17024
3.81358
3.44724
3.0301
2.5094
1.81464
0.867962
56.3067
57.4634
60.2973
64.9806
71.7841
81.2112
93.9637
110.838
132.49
158.778
186.443
207.125
207.093
182.357
147.561
115.773
89.3593
68.0882
51.5272
39.0038
29.7781
23.1947
18.397
14.8437
11.9667
9.65165
7.91776
6.66426
5.74416
5.05114
4.52252
4.11527
3.79411
3.52681
3.28276
3.02877
2.72499
2.31429
1.71444
0.811312
53.3249
54.3618
56.9193
61.214
67.6249
76.8657
90.0659
108.897
135.728
173.756
209.113
250.82
255.767
214.927
164.123
125.151
93.0604
68.3479
50.16
36.9377
23.1557
17.0825
14.741
13.2566
11.156
9.0327
7.37491
6.15381
5.21917
4.48393
3.90646
3.45277
3.09314
2.79873
2.54448
2.30383
2.03961
1.69158
1.1566
0.261339
49.4978
50.335
52.4206
55.9842
61.4554
69.6626
82.0276
100.944
130.398
175.168
251.147
335.911
357.581
248.948
166.856
120.827
82.4347
56.1187
38.799
27.7455
20.445
5.19453
4.59231
5.38093
4.88055
4.16003
3.65495
3.2796
2.95112
2.66229
2.41937
2.21781
2.05232
1.91351
1.79383
1.68486
1.56521
1.38528
1.02027
0.122387
45.0214
45.568
46.9627
49.3882
53.2115
59.1543
68.531
83.7811
109.671
164.375
257.95
451.467
611.961
235.086
165.547
114.508
67.4782
40.9105
25.3592
16.2436
14.7279
14.08
12.4046
7.30785
4.05982
2.63339
1.9591
1.51541
1.18786
0.958302
0.8018
0.691687
0.614135
0.561016
0.529819
0.520194
0.531907
0.567129
0.642387
0.854069
40.1441
40.3593
40.8835
41.8182
43.3449
45.7996
49.7711
56.2719
67.0786
106.642
182.947
414.866
1936.69
198.257
83.1962
32.5558
16.3608
7.7428
-3.13666
-9.81595
13.5341
13.3495
7.88341
4.62477
3.39537
2.8309
2.39049
2.02327
1.74626
1.5435
1.38947
1.27087
1.17824
1.10961
1.06489
1.04322
1.0476
1.09013
1.21865
35.2785
35.1133
34.6863
33.977
32.9228
31.3603
28.9107
24.6882
16.4277
19.016
3.1908
-154.637
-981.225
-1024.44
-306.645
-98.7287
-45.2875
-25.8312
-17.0724
-11.04
-4.04095
-8.34273
-6.65995
-5.17184
-4.25392
-3.24966
-2.2713
-1.4806
-0.86885
-0.380537
0.0176292
0.34178
0.605291
0.817993
0.990385
1.12826
1.22558
1.25658
1.1519
0.73642
30.8001
30.2732
28.9489
26.7022
23.2707
18.1136
10.2437
-2.17068
-22.6416
-45.621
-117.37
-259.379
-466.753
-493.588
-313.335
-171.325
-98.5146
-60.3402
-38.9598
-25.3586
-15.4516
-9.0092
-5.20316
-2.3842
-0.597317
0.538663
1.33839
1.89938
2.26862
2.50076
2.64154
2.71957
2.75144
2.74656
2.70861
2.63497
2.5067
2.27949
1.86235
1.07356
27.0793
26.2513
24.2049
20.7293
15.4558
7.68111
-3.76892
-20.8098
-46.6309
-86.7082
-142.956
-214.075
-278.528
-287.067
-231.703
-161.252
-107.951
-73.6334
-51.2456
-35.665
-24.5933
-17.2163
-12.2627
-8.66481
-6.07777
-4.21877
-2.81218
-1.71364
-0.858332
-0.195318
0.322087
0.728281
1.04493
1.28429
1.4504
1.54006
1.53467
1.39591
1.06828
0.511133
24.4268
23.3971
20.8451
16.5424
10.0868
0.762297
-12.5057
-31.1737
-57.0615
-92.0137
-136.056
-184.221
-222.425
-230.299
-201.544
-154.837
-112.132
-80.779
-58.5949
-42.335
-30.2052
-21.2907
-14.713
-9.8552
-6.28467
-3.6745
-1.75306
-0.329786
0.717494
1.47736
2.02073
2.40109
2.65489
2.80437
2.85805
2.81918
2.67059
2.37254
1.86072
1.02768
23.05
21.9138
19.1107
14.4026
7.38197
-2.63254
-16.6069
-35.677
-60.9465
-92.8792
-130.045
-167.282
-194.983
-201.895
-183.698
-149.373
-113.354
-83.927
-61.8686
-45.2946
-32.7109
-23.273
-16.3156
-11.2389
-7.54947
-4.86609
-2.90209
-1.45065
-0.37222
0.42868
1.02182
1.45775
1.77066
1.97945
2.08349
2.09426
1.99291
1.74238
1.30159
0.645928
58.2621
59.4181
62.2347
66.8009
73.2163
81.6822
92.392
105.336
120.078
135.417
149.045
157.331
156.62
145.816
127.564
106.868
87.2411
69.9832
55.4176
43.5552
34.1786
26.8936
21.3032
17.0745
13.8673
11.3817
9.43389
7.92256
6.76501
5.87836
5.19229
4.65455
4.22465
3.86608
3.54274
3.21656
2.84542
2.37707
1.74128
0.844773
57.2629
58.397
61.1638
65.6789
72.0974
80.7161
91.8859
105.839
122.446
140.79
158.494
170.362
169.584
154.969
131.802
107.738
86.2544
67.9882
53.0078
41.1656
32.0644
25.0412
19.6882
15.7777
12.8776
10.6189
8.83784
7.45183
6.37834
5.53956
4.87742
4.35053
3.92426
3.56634
3.24562
2.9286
2.57599
2.13582
1.54076
0.71723
55.2865
56.3643
58.9996
63.3534
69.6776
78.4414
90.3023
106.013
126.209
150.796
176.75
196.37
196.177
172.767
140.146
110.383
85.3993
65.0807
49.2233
37.3017
28.6996
22.2151
17.3122
13.79
11.0485
8.85174
7.18509
5.96698
5.06905
4.39408
3.88382
3.49741
3.20058
2.96455
2.76172
2.56416
2.33616
2.02487
1.54586
0.765171
52.3896
53.3512
55.7213
59.702
65.6469
74.2243
86.498
104.057
129.181
165.003
199.937
239.996
244.577
205.127
156.98
120.241
89.4885
65.6081
48.0164
35.2925
22.0232
16.3079
13.7383
12.0989
9.95643
7.81505
6.13437
4.88982
3.93875
3.19949
2.6319
2.2025
1.88037
1.63713
1.44977
1.29708
1.15039
0.960002
0.632928
0.00468591
48.6741
49.4479
51.3686
54.6529
59.7038
67.2995
78.7872
96.4568
124.18
167.914
241.286
323.673
344.129
237.856
160.717
117.323
79.8772
53.9169
36.8242
25.92
18.5934
3.81654
3.7821
4.77828
4.14323
3.2256
2.58879
2.14007
1.77329
1.47008
1.23009
1.04562
0.910181
0.813545
0.752734
0.726723
0.731733
0.740884
0.653701
0.102437
44.3269
44.8367
46.1033
48.3089
51.8017
57.2626
65.9465
80.2061
104.726
158.288
250.363
441.199
597.388
224.665
165.653
112.541
66.0879
39.3026
23.5968
14.2185
9.38126
6.72041
6.98495
3.30287
0.466694
-0.937162
-1.64048
-2.09384
-2.40654
-2.59499
-2.68468
-2.71019
-2.68014
-2.60989
-2.50011
-2.34244
-2.11541
-1.77889
-1.24393
-0.245039
39.6261
39.8034
40.2461
41.0456
42.374
44.5529
48.1522
54.1886
64.508
103.479
179.533
412.392
1918.75
214.445
80.8691
32.7602
15.8212
7.06912
-2.99215
-5.91009
15.3194
13.1888
6.61871
2.91521
1.39339
0.624824
0.0737769
-0.338271
-0.62405
-0.815328
-0.944648
-1.02767
-1.0685
-1.06268
-0.998345
-0.853815
-0.597751
-0.172713
0.511573
34.9189
34.7406
34.2857
33.5349
32.4322
30.8282
28.3826
24.3007
16.5249
19.424
5.2123
-146.223
-962.035
-1006.74
-294.993
-92.6205
-42.3617
-24.7897
-16.9457
-11.3024
-4.36447
-8.59412
-7.65618
-6.63325
-5.66732
-4.55303
-3.52743
-2.7175
-2.09174
-1.59139
-1.17907
-0.834956
-0.5445
-0.295875
-0.0688358
0.149712
0.369506
0.579961
0.721387
0.574636
30.5918
30.0713
28.7738
26.5738
23.2309
18.242
10.6889
-1.13406
-20.5108
-42.6376
-110.922
-247.344
-448.051
-474.147
-299.18
-162.858
-93.9609
-58.0599
-37.9621
-25.1368
-15.7864
-10.0622
-6.24482
-3.40856
-1.61842
-0.491505
0.295701
0.85106
1.22346
1.46463
1.61972
1.71699
1.77428
1.80284
1.8141
1.81165
1.78701
1.707
1.48675
0.931417
27.0016
26.2015
24.2174
20.8582
15.7805
8.32716
-2.59842
-18.7856
-43.2215
-81.0735
-134.234
-201.69
-263.189
-271.632
-219.304
-152.942
-102.975
-70.8225
-49.7582
-35.0609
-24.6524
-17.8356
-12.8332
-9.17476
-6.63531
-4.83245
-3.4493
-2.35227
-1.48926
-0.814313
-0.281209
0.143989
0.484377
0.751588
0.956177
1.09862
1.16687
1.1296
0.932702
0.513245
24.4433
23.4504
20.993
16.8549
10.6655
1.75372
-10.8825
-28.6041
-53.1122
-86.1487
-127.783
-173.412
-209.854
-217.696
-190.854
-147.025
-106.98
-77.5529
-56.6466
-41.2704
-29.785
-21.317
-14.9247
-10.1744
-6.71358
-4.19325
-2.32683
-0.932079
0.102398
0.859651
1.40823
1.80019
2.07199
2.24618
2.33653
2.34546
2.2612
2.05207
1.65966
0.974408
23.1168
22.0242
19.3287
14.8062
8.08797
-1.47191
-14.7694
-32.868
-56.7943
-87.0031
-122.17
-157.482
-183.923
-190.852
-174.077
-141.998
-108.231
-80.5808
-59.7639
-44.0575
-32.0991
-23.0995
-16.4091
-11.4802
-7.88225
-5.26718
-3.35061
-1.92575
-0.858309
-0.057927
0.541852
0.990028
1.32017
1.55171
1.69387
1.7467
1.69889
1.52339
1.18394
0.648851
56.7261
57.7662
60.2975
64.397
70.1476
77.7218
87.284
98.8154
111.918
125.524
137.575
144.826
144.095
134.299
117.8
99.049
81.1338
65.2335
51.7257
40.6921
31.956
25.1219
19.7996
15.7193
12.625
10.2515
8.40925
6.9846
5.89213
5.05433
4.40608
3.89729
3.48956
3.15136
2.85273
2.56117
2.24147
1.8485
1.32306
0.593256
55.7625
56.7822
59.2644
63.3109
69.055
76.754
86.7126
99.1275
113.879
130.155
145.899
156.202
155.49
142.285
121.405
99.6737
80.0771
63.2377
49.3621
38.3993
29.9887
23.352
18.1801
14.3816
11.5966
9.45081
7.76272
6.44815
5.4308
4.63807
4.01509
3.52149
3.12395
2.79394
2.506
2.2342
1.94632
1.59879
1.13372
0.488443
53.8625
54.827
57.1823
61.0702
66.7107
74.515
85.0616
99.0154
116.945
138.787
161.872
179.475
179.003
157.783
128.56
101.843
79.0692
60.325
45.6672
34.7542
27.1482
20.8322
15.6643
12.1334
9.64887
7.72789
6.24636
5.13523
4.29835
3.6566
3.16087
2.77764
2.48036
2.24516
2.05381
1.88776
1.72305
1.51827
1.19719
0.61275
51.0797
51.9367
54.0414
57.5742
62.8467
70.4484
81.324
96.8952
119.23
151.243
184.609
221.451
225.31
188.494
144.802
111.679
83.2094
60.886
44.4582
32.7128
20.4972
15.1853
11.7098
9.5934
7.61328
5.81153
4.41561
3.38092
2.58659
1.96159
1.47125
1.09473
0.808276
0.59059
0.434739
0.334766
0.284369
0.259599
0.194813
-0.0766004
47.5214
48.2043
49.8903
52.7732
57.2103
63.8914
74.0219
89.6678
114.399
155.559
223.452
300.744
319.155
217.532
148.39
109.837
74.1932
49.358
33.1503
22.9282
15.8464
-0.181697
1.21037
3.10001
2.82032
1.97312
1.28058
0.732487
0.260762
-0.139081
-0.465356
-0.715939
-0.904927
-1.03825
-1.10619
-1.09326
-0.973969
-0.729177
-0.393682
-0.245224
43.37
43.8078
44.8896
46.7782
49.7827
54.5102
62.0864
74.6582
96.6055
147.198
235.311
419.663
567.154
197.541
152.846
110.17
62.6648
35.4486
19.9438
10.6893
1.03334
-7.85365
-3.49192
-2.85358
-3.55541
-3.94212
-4.07166
-4.18801
-4.32115
-4.43506
-4.51403
-4.57298
-4.59043
-4.56783
-4.48383
-4.30172
-3.95922
-3.34505
-2.26413
-0.414792
38.8906
39.0223
39.3475
39.9482
40.9775
42.7204
45.6918
50.8484
60.0034
97.0898
171.402
404.781
1871.48
196.001
91.9571
31.0905
10.984
1.78046
-7.07954
-13.1492
12.5559
9.80545
3.15532
-0.554413
-2.20349
-3.10196
-3.73016
-4.17794
-4.47442
-4.65886
-4.75998
-4.79894
-4.78847
-4.70228
-4.51175
-4.15989
-3.55165
-2.5432
-1.01541
34.4143
34.2178
33.7205
32.9052
31.7203
30.0283
27.5319
23.5445
16.2905
19.3414
7.49762
-131.077
-905.324
-960.353
-271.745
-82.8086
-40.2788
-25.6787
-18.8725
-13.5142
-5.35636
-9.14547
-8.56859
-7.8139
-6.9108
-5.84691
-4.8504
-4.0409
-3.40668
-2.90441
-2.50129
-2.16422
-1.89552
-1.66755
-1.44217
-1.18908
-0.872056
-0.459671
0.0280513
0.33145
30.3001
29.7896
28.525
26.3866
23.1607
18.3966
11.2746
0.279462
-17.5092
-38.0585
-100.689
-226.94
-414.569
-438.827
-274.377
-149.377
-87.4873
-55.2921
-37.1159
-25.4532
-17.1133
-12.5935
-7.97876
-4.59193
-2.78477
-1.80821
-1.15301
-0.691911
-0.387534
-0.192468
-0.0628438
0.0287977
0.0949647
0.151439
0.214637
0.295773
0.400271
0.518335
0.590777
0.459202
26.8905
26.1254
24.2301
21.0335
16.2286
9.22545
-0.956574
-15.9118
-38.3007
-72.749
-121.073
-182.568
-238.87
-247.02
-200.027
-140.438
-95.7124
-66.7915
-47.6611
-34.2672
-24.8781
-18.9188
-13.5886
-9.64616
-7.1388
-5.45582
-4.16051
-3.118
-2.29159
-1.64105
-1.12255
-0.703222
-0.362713
-0.0858373
0.143111
0.329906
0.472138
0.552506
0.52917
0.347907
24.4616
23.5205
21.1922
17.2841
11.4656
3.13442
-8.60648
-24.967
-47.4594
-77.6424
-115.603
-157.245
-190.748
-198.384
-174.569
-135.331
-99.4025
-72.8355
-53.7823
-39.6836
-29.1455
-21.351
-15.2197
-10.5609
-7.19914
-4.78915
-3.01704
-1.69658
-0.720683
-0.00851849
0.50784
0.880253
1.14472
1.32499
1.43807
1.48909
1.47146
1.36363
1.12268
0.680563
23.2034
22.1707
19.6252
15.3669
9.06746
0.14583
-12.2008
-28.9148
-50.9058
-78.5744
-110.733
-143.071
-167.474
-174.286
-159.632
-131.042
-100.716
-75.6829
-56.6642
-42.2107
-31.1604
-22.8028
-16.4957
-11.7412
-8.23472
-5.69726
-3.85011
-2.48073
-1.45543
-0.686763
-0.11004
0.323228
0.646514
0.881081
1.0391
1.12291
1.12488
1.02713
0.806129
0.459818
54.8736
55.7735
57.9606
61.4964
66.4406
72.9254
81.0712
90.8362
101.855
113.201
123.13
128.976
128.078
119.501
105.242
88.9866
73.2762
59.1425
47.0053
37.0208
29.0849
22.8658
17.9882
14.1858
11.2647
9.02164
7.28889
5.95444
4.93457
4.15787
3.56557
3.1051
2.74098
2.44737
2.20022
1.96778
1.72608
1.43446
1.04015
0.465832
53.9529
54.8335
56.9717
60.4505
65.3726
71.9401
80.3889
90.8534
103.192
116.677
129.528
137.841
136.994
125.608
107.769
89.0948
71.9842
57.0558
44.6412
34.792
27.247
21.3034
16.6019
13.0107
10.3093
8.22456
6.59354
5.33085
4.36134
3.61846
3.05461
2.61691
2.2711
1.99464
1.7683
1.57278
1.37785
1.15072
0.842105
0.375613
52.1423
52.9703
54.9859
58.3061
63.1062
69.7157
78.5954
90.2641
105.145
123.141
142.098
156.224
155.32
137.292
112.758
90.0911
70.3351
53.7956
40.7613
31.1111
24.6991
19.2162
14.2153
10.6335
8.19939
6.40203
5.03442
4.01352
3.24885
2.67096
2.22472
1.88854
1.64209
1.45951
1.32746
1.23666
1.17494
1.11654
0.99657
0.626649
49.4979
50.2258
52.0067
54.99
59.4274
65.7954
74.8557
87.7469
106.126
132.362
162.555
193.628
196.318
164.288
127.382
98.9494
73.8069
53.9796
39.3629
29.1171
19.4357
16.3835
11.0486
7.22841
4.67863
2.84965
1.56529
0.681702
0.0638815
-0.381695
-0.704567
-0.925375
-1.06424
-1.14681
-1.17159
-1.12639
-0.995167
-0.765214
-0.453278
-0.216493
46.1278
46.6969
48.0952
50.4823
54.1487
59.6542
67.9731
80.7811
101.011
137.378
194.974
261.878
277.207
187.318
131.504
96.8411
64.2276
41.8453
27.4587
18.8841
15.3586
5.49977
3.6976
2.59593
1.14019
-0.148679
-1.0477
-1.69225
-2.19706
-2.60042
-2.91933
-3.15013
-3.30416
-3.39424
-3.40123
-3.28052
-2.97684
-2.40064
-1.47292
-0.429742
42.2092
42.5574
43.4117
44.9052
47.2891
51.052
57.0995
67.1806
84.9262
129.438
208.298
376.294
511.516
167.48
153.774
98.0077
51.8687
26.5809
12.6237
4.45433
-6.27149
-34.4137
-30.2017
-27.3554
-25.9111
-24.5149
-23.2169
-22.1455
-21.2574
-20.4845
-19.7899
-19.1731
-18.5908
-18.0005
-17.3666
-16.6278
-15.6625
-14.2204
-11.7439
-6.84674
37.9942
38.0709
38.25
38.5988
39.2391
40.3888
42.452
46.1956
53.1294
85.6962
153.232
373.744
1799.97
273.545
73.6745
17.2508
-1.47902
-9.51008
-15.2942
-18.9684
-0.55893
-3.50119
-8.90273
-11.6412
-12.7338
-13.2609
-13.5698
-13.7161
-13.726
-13.6389
-13.5013
-13.2851
-13.0015
-12.6314
-12.1167
-11.3477
-10.0981
-7.94169
-4.21888
33.792
33.5761
33.0259
32.1237
30.8193
28.9819
26.3435
22.3111
15.4071
17.8382
7.55974
-117.374
-827.859
-857.143
-233.371
-75.0414
-41.9527
-30.3894
-24.3163
-19.1259
-13.5643
-21.4453
-17.3913
-13.7382
-11.5763
-10.0055
-8.7781
-7.86451
-7.19357
-6.68816
-6.29635
-5.97483
-5.70861
-5.46423
-5.19963
-4.86233
-4.37993
-3.64021
-2.51813
-1.06065
29.9378
29.441
28.2097
26.139
23.0432
18.5334
11.9085
1.89431
-13.9418
-32.2785
-86.8384
-197.066
-361.52
-380.357
-237.109
-131.739
-80.0674
-52.6161
-36.716
-26.6348
-20.8446
-19.2931
-12.6733
-7.52046
-4.98089
-3.68016
-2.83174
-2.25007
-1.87162
-1.62774
-1.46214
-1.34263
-1.25011
-1.15665
-1.04168
-0.881756
-0.649027
-0.317104
0.0996034
0.413643
26.745
26.0211
24.2311
21.2253
16.7432
10.2797
1.00271
-12.4235
-32.2077
-62.1711
-103.783
-156.492
-204.619
-212.241
-173.55
-124.056
-86.5272
-61.7485
-44.9977
-33.2047
-25.1657
-20.4722
-15.1013
-10.8054
-8.04808
-6.19448
-4.77501
-3.64958
-2.77419
-2.09852
-1.57152
-1.15366
-0.82171
-0.548538
-0.315221
-0.106474
0.087652
0.266244
0.399205
0.394961
24.4717
23.591
21.4167
17.7819
12.4075
4.77859
-5.86596
-20.5389
-40.4861
-66.9709
-100.004
-136.053
-165.202
-172.357
-152.843
-120.111
-89.7174
-66.7889
-50.0156
-37.4682
-28.0955
-21.2109
-15.6494
-11.1941
-7.86504
-5.43936
-3.64068
-2.29203
-1.28881
-0.550831
-0.0100037
0.386049
0.674342
0.882525
1.02965
1.12605
1.17233
1.15497
1.03575
0.72147
23.2953
22.3328
19.9653
16.0202
10.2206
2.0703
-9.11148
-24.114
-43.6796
-68.1017
-96.3194
-124.63
-146.136
-152.611
-140.729
-116.843
-91.0586
-69.3745
-52.5962
-39.6796
-29.741
-22.2017
-16.455
-11.9944
-8.6065
-6.10334
-4.25266
-2.86238
-1.80914
-1.01127
-0.407186
0.0506282
0.396404
0.653908
0.837908
0.955228
1.00315
0.968813
0.82949
0.554981
52.8432
53.5917
55.4051
58.3271
62.3912
67.6821
74.2667
82.0692
90.7447
99.506
106.952
111.062
109.816
102.541
90.8248
77.4401
64.3199
52.3035
41.7994
33.0077
25.8982
20.2686
15.8771
12.4863
9.87553
7.8491
6.26721
5.03808
4.089
3.35936
2.80576
2.37123
2.02335
1.7404
1.51565
1.2879
1.07546
0.836318
0.536314
0.148153
51.969
52.6993
54.4635
57.3228
61.3448
66.6668
73.4397
81.7138
91.2951
101.511
110.863
116.648
115.346
106.013
91.7705
76.7465
62.6834
50.1209
39.4426
30.7528
23.8571
18.4838
14.3303
11.1808
8.77718
6.89314
5.40168
4.22936
3.3049
2.57361
2.05452
1.6491
1.31237
1.03494
0.807924
0.644447
0.484284
0.319218
0.129711
-0.0800253
50.2548
50.9358
52.5812
55.2794
59.1544
64.4377
71.4436
80.4944
91.7828
105.047
118.583
128.046
126.343
112.064
93.1132
75.5172
59.7967
46.1936
35.1539
26.5802
19.9594
15.2081
11.3562
8.48903
6.34797
4.69848
3.43159
2.49093
1.76568
1.22963
0.773814
0.430577
0.194719
0.0385351
-0.0685185
-0.11978
-0.124325
-0.0842853
-0.0230752
-0.00557149
47.7601
48.3502
49.7764
52.1553
55.667
60.651
67.635
77.3692
90.8708
109.402
134.188
156.164
157.128
132.091
103.655
81.3676
61.2284
44.9637
32.6689
23.7224
12.1652
9.39574
6.3246
3.84064
1.74521
0.0926531
-1.14705
-2.06504
-2.72228
-3.21348
-3.57907
-3.8233
-3.965
-4.03323
-4.02722
-3.92241
-3.69586
-3.2968
-2.64543
-1.57544
44.5961
45.0403
46.1235
47.9632
50.7685
54.9379
61.1423
70.5047
84.9369
113.781
154.639
202.048
209.402
139.584
100.009
73.6619
48.0597
30.2164
18.5723
11.695
9.69883
-2.68398
-3.65518
-4.6082
-6.01241
-7.21023
-7.9615
-8.45161
-8.80199
-9.05538
-9.22732
-9.32986
-9.33476
-9.24155
-9.08538
-8.78545
-8.26638
-7.38103
-5.87863
-3.36248
40.9319
41.1803
41.7848
42.8395
44.5235
47.1719
51.3939
58.3354
70.3262
104.467
164.557
292.152
392.191
102.244
114.413
58.7811
21.2999
2.02579
-8.08434
-13.0319
-11.3855
-25.658
-27.1168
-30.8091
-31.785
-31.4231
-30.7991
-30.1289
-29.4151
-28.6701
-27.9123
-27.135
-26.3761
-25.6186
-24.7711
-23.774
-22.4841
-20.5576
-17.1888
-10.3809
37.0041
37.0169
37.0354
37.1023
37.2963
37.7473
38.6901
40.5595
44.204
68.4948
119.816
301.311
1614.32
264.186
-15.6252
-59.8663
-69.121
-70.4281
-68.982
-63.9672
-36.0491
-35.1708
-37.3991
-37.5443
-36.5084
-35.3
-34.1473
-33.0315
-31.9465
-30.9005
-29.9163
-28.9559
-27.9696
-26.9613
-25.8352
-24.4356
-22.395
-18.8632
-11.6313
33.1004
32.8608
32.2498
31.2451
29.795
27.768
24.9054
20.6828
13.9177
14.6689
5.11871
-93.3071
-659.679
-651.205
-187.105
-78.3383
-54.3113
-43.9613
-37.5707
-32.018
-29.2266
-31.4706
-27.2481
-23.3856
-20.9696
-19.0843
-17.5547
-16.3513
-15.3906
-14.6033
-13.9432
-13.3794
-12.8962
-12.4143
-11.918
-11.3489
-10.6025
-9.49168
-7.67361
-4.46609
29.5285
29.0471
27.8462
25.8425
22.8806
18.6343
12.5322
3.58862
-9.91371
-25.5965
-69.2549
-153.733
-277.396
-292.192
-187.812
-110.643
-71.4117
-49.2423
-35.675
-26.9764
-24.2543
-19.1439
-15.1478
-11.9935
-10.0734
-8.76136
-7.73947
-6.93617
-6.30933
-5.81186
-5.40561
-5.06349
-4.7715
-4.4956
-4.21185
-3.89073
-3.48749
-2.93858
-2.15704
-1.03161
26.5716
25.8915
24.2119
21.4086
17.273
11.3941
3.10982
-8.60631
-25.3895
-50.0332
-83.3512
-124.297
-160.85
-168.002
-140.559
-103.869
-74.8622
-54.729
-40.473
-30.11
-22.8784
-18.7548
-15.009
-11.8883
-9.56028
-7.80027
-6.40317
-5.28078
-4.38557
-3.67125
-3.09645
-2.62764
-2.24306
-1.91469
-1.62221
-1.3473
-1.07464
-0.790059
-0.485179
-0.143001
24.4686
23.6529
21.6429
18.3016
13.4074
6.54475
-2.89229
-15.6849
-32.7458
-54.9296
-82.059
-111.17
-134.679
-140.951
-126.77
-102.075
-78.1791
-59.3795
-45.1129
-34.1674
-25.8402
-19.7083
-14.9926
-11.2672
-8.41958
-6.28273
-4.66584
-3.43175
-2.48944
-1.77067
-1.22021
-0.795905
-0.466767
-0.208777
-0.00501352
0.154728
0.272516
0.34211
0.348682
0.282292
23.3815
22.4936
20.3171
16.7092
11.4506
4.14239
-5.75788
-18.8598
-35.6982
-56.4074
-80.0225
-103.503
-121.375
-127.228
-118.577
-100.109
-79.5719
-61.6956
-47.4112
-36.1479
-27.3351
-20.5912
-15.4907
-11.5906
-8.62289
-6.38705
-4.69873
-3.41147
-2.42401
-1.6651
-1.08076
-0.62895
-0.278881
-0.00917023
0.194295
0.338908
0.42288
0.437217
0.374353
0.261966
50.7855
51.3826
52.825
55.1366
58.3253
62.4294
67.4633
73.3191
79.6738
85.876
90.8559
93.1851
91.5255
85.5055
76.2777
65.7397
55.2478
45.436
36.664
29.1589
22.9672
17.9971
14.1115
11.1525
8.88406
7.10449
5.70096
4.60648
3.7625
3.11543
2.62101
2.23666
1.93339
1.69041
1.48978
1.30529
1.11848
0.898141
0.606963
0.201555
49.9591
50.5378
51.9312
54.1745
57.3009
61.384
66.4916
72.5925
79.4463
86.4447
92.4046
95.4168
93.4341
86.0315
75.3717
64.0556
53.2148
43.2319
34.4689
27.1203
21.1277
16.3395
12.6547
9.96047
7.93273
6.33917
5.07845
4.08928
3.31356
2.70599
2.23735
1.86763
1.57134
1.33289
1.13922
0.978773
0.826803
0.660136
0.444864
0.135957
48.3427
48.8739
50.154
52.2331
55.1872
59.151
64.2932
70.7439
78.4745
87.0773
95.2658
100.021
97.0051
85.9019
72.289
59.8165
48.4176
38.0414
29.1819
21.9748
16.1754
11.7102
8.90858
6.93134
5.26664
3.91269
2.89735
2.16128
1.62159
1.22546
0.929243
0.717983
0.575924
0.483846
0.429067
0.410488
0.421735
0.448085
0.44693
0.289471
45.9996
46.4444
47.5233
49.3027
51.8929
55.4986
60.4141
67.0019
75.6486
86.6341
98.3581
107.065
101.681
82.9702
65.7916
52.923
41.2409
30.9733
22.6394
15.8414
9.12441
2.86208
2.84431
3.16434
2.45731
1.47562
0.645271
-0.0063927
-0.5234
-0.934747
-1.2523
-1.47948
-1.62544
-1.70518
-1.71808
-1.64842
-1.47997
-1.18953
-0.77175
-0.307072
43.0451
43.3591
44.1289
45.4279
47.3749
50.2106
54.2983
60.1794
68.6101
88.2934
109.246
130.362
125.05
83.7241
60.7239
47.6545
32.1574
20.1568
11.9528
6.32069
0.820943
-13.2467
-10.8305
-7.88104
-6.59366
-5.98904
-5.57087
-5.26952
-5.07552
-4.9588
-4.886
-4.82851
-4.76566
-4.6842
-4.55151
-4.31908
-3.92401
-3.26669
-2.24407
-0.905174
39.6327
39.7824
40.1369
40.756
41.7415
43.2754
45.6618
49.4048
55.3644
76.5369
103.631
148.859
167.871
27.6086
21.8866
5.16527
-4.62795
-9.34789
-12.679
-14.9153
-20.6567
-13.0496
-14.6258
-16.4965
-16.9885
-16.9238
-16.7411
-16.5216
-16.2661
-15.9787
-15.6633
-15.3044
-14.9242
-14.5164
-14.0202
-13.3787
-12.4868
-11.1179
-8.83935
-4.91765
35.9969
35.9446
35.8003
35.5857
35.3333
35.0826
34.8861
34.806
34.8906
48.4346
59.7579
130.083
172.446
-693.406
-133.657
-95.4247
-70.2072
-63.6093
-58.4998
-54.5985
-67.6533
-40.4077
-37.9746
-35.7708
-33.776
-31.8406
-30.1442
-28.6958
-27.4244
-26.2855
-25.2544
-24.314
-23.441
-22.5756
-21.6843
-20.7019
-19.5109
-17.829
-15.0323
-9.49987
32.3883
32.1274
31.4537
30.3448
28.7486
26.5269
23.4156
18.9192
12.0561
10.3383
-11.4645
-80.3287
-303.773
-255.644
-107.437
-60.5351
-39.9681
-30.0269
-24.0659
-19.1759
-11.0417
4.54584
1.75939
-1.90555
-3.4953
-4.20201
-4.64188
-4.94839
-5.14789
-5.26739
-5.3321
-5.36403
-5.35566
-5.28081
-5.12397
-4.86142
-4.42694
-3.69806
-2.51965
-0.944103
29.1024
28.634
27.4641
25.5262
22.6969
18.7085
13.1012
5.09047
-6.77823
-25.4306
-49.3431
-103.553
-174.135
-186.641
-130.363
-84.2706
-57.5933
-40.7815
-29.7251
-21.6888
-11.2054
-1.89202
-2.69621
-4.08012
-4.07679
-3.59452
-3.13103
-2.75232
-2.43958
-2.18211
-1.97179
-1.79614
-1.64595
-1.50674
-1.34788
-1.14856
-0.885059
-0.526066
-0.0829887
0.255815
26.3835
25.748
24.1741
21.5718
17.7816
12.4857
5.18997
-4.83661
-18.6339
-37.5326
-62.2928
-90.8741
-115.529
-121.764
-105.941
-82.1633
-61.5811
-46.1748
-34.5717
-25.4092
-17.7381
-12.455
-9.47205
-7.3283
-5.42954
-3.86696
-2.68621
-1.81214
-1.16071
-0.673667
-0.309295
-0.0347128
0.172622
0.335679
0.477556
0.610195
0.738449
0.853791
0.906384
0.7341
24.4509
23.6973
21.8523
18.8036
14.3889
8.29218
0.0639055
-10.844
-24.9972
-42.7584
-63.6928
-85.6209
-102.978
-108.528
-99.9282
-83.1571
-65.7864
-51.195
-39.5304
-30.155
-22.5917
-16.7008
-12.1817
-8.84193
-6.33496
-4.42747
-2.98223
-1.88991
-1.06243
-0.434167
0.0427735
0.404663
0.678544
0.885127
1.03899
1.14755
1.20747
1.19986
1.07845
0.743375
23.4533
22.6399
20.653
17.3816
12.6643
6.19792
-2.42048
-13.6154
-27.7052
-44.6385
-63.5186
-82.0025
-96.0386
-101.181
-95.7145
-82.6594
-67.3239
-53.2708
-41.5446
-31.9675
-24.2211
-18.0917
-13.3715
-9.81144
-7.10711
-5.02105
-3.40893
-2.16972
-1.2211
-0.496491
0.0554667
0.473865
0.788374
1.02008
1.1823
1.28131
1.31186
1.25623
1.07878
0.720112
48.8458
49.3029
50.4051
52.161
54.554
57.585
61.227
65.355
69.6812
73.6921
76.6206
77.5305
75.6295
70.7772
63.734
55.6863
47.5181
39.7038
32.5578
26.3177
21.0896
16.8575
13.5338
10.9714
8.96873
7.36847
6.08736
5.0729
4.27653
3.6521
3.16091
2.77045
2.45399
2.1894
1.95675
1.73421
1.49616
1.2106
0.836334
0.321364
48.0645
48.5037
49.5566
51.2418
53.5562
56.5238
60.1477
64.3429
68.8575
73.1807
76.4553
77.5057
75.2563
69.6338
61.9184
53.605
45.4125
37.6379
30.6068
24.5705
19.5912
15.6239
12.5914
10.2964
8.49316
7.0376
5.86579
4.92856
4.17711
3.57091
3.08026
2.68116
2.35222
2.07493
1.83279
1.61024
1.38421
1.12308
0.782728
0.305842
46.5402
46.9345
47.8761
49.3989
51.5235
54.3093
57.8148
62.0348
66.8065
71.6622
75.595
76.8848
73.6284
66.063
57.0788
48.637
40.6752
33.0668
26.2602
20.5645
15.989
12.5417
10.2273
8.4229
6.82182
5.47075
4.41564
3.61423
3.00238
2.53143
2.16852
1.88908
1.6752
1.51127
1.38382
1.2822
1.18994
1.0771
0.883522
0.479968
44.3407
44.6563
45.4133
46.6506
48.4188
50.8103
53.9456
57.9244
62.7421
68.0943
72.9148