/*--------------------------------*- C++ -*----------------------------------*\
| =========                 |                                                 |
| \\      /  F ield         | OpenFOAM: The Open Source CFD Toolbox           |
|  \\    /   O peration     | Version:  2306                                  |
|   \\  /    A nd           | Website:  www.openfoam.com                      |
|    \\/     M anipulation  |                                                 |
\*---------------------------------------------------------------------------*/
FoamFile
{
    version     2.0;
    format      ascii;
    arch        "LSB;label=32;scalar=64";
    class       surfaceScalarField;
    location    "0.35";
    object      phi;
}
// * * * * * * * * * * * * * * * * * * * * * * * * * * * * * * * * * * * * * //

dimensions      [0 3 -1 0 0 0 0];

oriented        oriented;

internalField   nonuniform List<scalar> 
338621
(
24.9952
0.00208322
0.00138715
24.9878
0.00462429
0.00285364
24.9758
0.00750507
0.00451964
24.9587
0.0105897
0.00653444
24.9356
0.0139926
0.00921332
24.9029
0.020127
0.0127235
24.8561
0.0297806
0.0171743
24.793
0.0405742
0.0228636
24.7308
0.0326091
0.0299996
24.6872
0.00569789
0.0384456
24.6581
-0.0183653
0.0479949
24.5834
0.0173553
0.0580517
24.6115
-0.0954138
0.0681449
24.7418
-0.206922
0.0772976
24.7842
-0.126641
0.0849534
24.8175
-0.123837
0.0909272
24.8477
-0.125341
0.095489
24.8724
-0.123786
0.0992737
24.8931
-0.123127
0.102415
24.9208
-0.132759
0.105165
24.9512
-0.137858
0.107392
24.9742
-0.13243
0.109407
24.9916
-0.128653
0.111256
25.0055
-0.126734
0.11278
25.017
-0.12562
0.114111
25.0264
-0.124664
0.115259
25.0344
-0.124167
0.116163
25.0412
-0.123555
0.116824
25.0468
-0.122975
0.117354
25.0517
-0.122688
0.117745
25.0562
-0.122447
0.117998
25.0603
-0.122272
0.118105
25.0642
-0.122099
0.118194
25.0679
-0.121935
0.118256
25.0714
-0.121803
0.118258
25.0752
-0.122015
0.118233
25.0792
-0.122078
0.118139
25.0833
-0.122188
0.118052
25.0878
-0.122401
0.117928
-0.12299
0.117521
24.9951
0.00417292
0.00135638
24.9876
0.00941409
0.00276016
24.9752
0.0155655
0.00440437
24.958
0.0214583
0.00639751
24.9348
0.0282251
0.00904838
24.9053
0.03734
0.0124452
24.8695
0.0488029
0.016937
24.8236
0.0640603
0.022707
24.7587
0.0678043
0.0300221
24.6835
0.0423871
0.0389071
24.64
-0.0235751
0.049269
24.626
-0.0282733
0.0602493
24.6641
-0.204702
0.0718035
24.7482
-0.372468
0.0820555
24.8292
-0.297377
0.0902336
24.8987
-0.289386
0.0963655
24.9523
-0.279792
0.100975
24.9959
-0.271974
0.104724
25.0421
-0.277193
0.107877
25.077
-0.278177
0.110476
25.0978
-0.271422
0.112682
25.1125
-0.261685
0.114599
25.1222
-0.254807
0.11643
25.1295
-0.251995
0.117973
25.1346
-0.250026
0.11929
25.1382
-0.248732
0.120379
25.1403
-0.247524
0.121314
25.1418
-0.247127
0.122057
25.1431
-0.24692
0.122662
25.1438
-0.246562
0.123143
25.1444
-0.246526
0.123514
25.1446
-0.246303
0.123795
25.1451
-0.246638
0.124025
25.1457
-0.246754
0.124204
25.1465
-0.246929
0.124328
25.1475
-0.247442
0.124442
25.1488
-0.247818
0.124448
25.1505
-0.248321
0.124449
25.1529
-0.249193
0.124342
-0.24957
0.12397
24.9955
0.00596594
0.00128704
24.9879
0.0143357
0.0026215
24.9761
0.0232553
0.00415557
24.9582
0.0332578
0.00613082
24.9339
0.043934
0.00868821
24.9027
0.0566767
0.0120294
24.8626
0.0724942
0.0165475
24.8132
0.0912721
0.0224248
24.7439
0.107228
0.0301332
24.6454
0.101118
0.0399682
24.568
0.00575983
0.0519658
-0.00554101
0.00612966
-0.00417586
24.664
-0.0381038
0.065645
-0.0577873
-0.0368191
-0.0567271
24.5561
-0.0102682
0.0783898
-0.0944771
0.0227384
-0.0927126
24.7291
-0.181002
0.0900414
-0.122611
-0.210704
-0.120814
24.8235
-0.127355
0.0982327
-0.11979
-0.12518
-0.11738
24.8856
-0.116089
0.103862
-0.113951
-0.113556
-0.111706
24.9409
-0.11187
0.107952
-0.111936
-0.109904
-0.109311
25.0078
-0.114153
0.111334
-0.11304
-0.112092
-0.11105
25.0518
-0.110506
0.114257
-0.109115
-0.108602
-0.107385
25.0785
-0.106765
0.116611
-0.105759
-0.104986
-0.104056
25.0973
-0.408736
0.118514
25.1116
-0.396247
0.120234
25.1202
-0.385547
0.122042
25.1264
-0.381919
0.12374
25.1309
-0.379771
0.125246
25.1337
-0.378043
0.126504
25.135
-0.376402
0.127538
25.1358
-0.37627
0.128386
25.1355
-0.375693
0.129086
25.1353
-0.376073
0.129679
25.1347
-0.376097
0.130189
25.1342
-0.376485
0.130642
25.1336
-0.376974
0.130999
25.1332
-0.377767
0.131405
25.1327
-0.378116
0.131682
25.1323
-0.37904
0.13194
25.1325
-0.380067
0.132053
25.1331
-0.38101
0.132097
25.1339
-0.381995
0.131979
-0.382888
0.131581
24.9957
0.00808259
0.00118109
24.9891
0.0185802
0.00241223
24.9774
0.0311392
0.00380954
24.9606
0.0444071
0.0056824
24.9361
0.0604837
0.00807151
24.9016
0.079988
0.0112803
24.8558
0.102698
0.0156598
24.7974
0.128365
0.021524
24.7304
0.144839
0.0294917
6.14117
0.0371918
0.040247
0.0545218
0.0384918
0.0548409
6.16323
6.14054
6.16139
6.1235
0.0175578
0.0058828
-6.11032
6.09811
-0.0335882
0.00771986
-6.10197
6.12348
-0.0413014
0.00954727
-6.11574
6.14275
-0.219325
0.0113412
-6.16154
6.17595
-0.154295
0.0125424
-6.18941
6.20033
-0.140188
0.0131787
-6.2119
6.22645
-0.140063
0.0136333
-6.23865
6.24608
-0.13562
0.0140221
-6.2521
6.25752
-0.13028
0.0143552
-6.26212
6.26631
-0.125619
0.0146574
25.1096
-0.137083
0.122337
-0.137917
-0.136469
-0.138581
-6.27009
-6.27491
-6.27054
-6.27515
25.1163
-0.527261
0.124369
25.1191
-0.51446
0.126083
25.1212
-0.511893
0.127804
25.1209
-0.509105
0.129632
25.1187
-0.507181
0.131387
25.1159
-0.506628
0.132985
25.1119
-0.506667
0.134423
25.107
-0.506557
0.135714
25.1016
-0.507468
0.136875
25.0959
-0.508325
0.137912
25.0898
-0.509272
0.13883
25.0835
-0.510177
0.139579
25.0771
-0.511749
0.1403
25.0709
-0.512692
0.140772
25.0646
-0.513802
0.141106
25.0584
-0.515042
0.14116
25.0524
-0.515972
0.140949
25.0476
-0.517683
0.140465
-0.518175
0.139579
24.9973
0.00857232
0.00103824
24.9914
0.0223545
0.00212745
24.9817
0.037529
0.003358
24.9663
0.05485
0.00502473
24.9434
0.0762841
0.00715261
24.9099
0.103556
0.0100259
24.8597
0.138996
0.0139519
24.7851
0.183691
0.019402
6.17098
0.234022
0.0268746
6.16362
6.17086
6.16364
6.1548
0.0493602
0.00401709
6.12922
0.00564507
-6.15727
0.0203001
0.0119218
0.0117771
0.0203685
-0.0419554
-6.07632
6.04203
0.00764634
-0.00194584
0.00422387
0.00395995
-0.0018862
0.0223032
-6.04164
6.06011
0.00977299
0.0293364
-0.040049
-0.0401503
-0.0189813
0.0415964
-6.11278
6.13831
0.0120118
-0.0515217
-0.0663091
-0.1042
-0.0519562
0.23643
-6.17097
6.18316
0.0130023
-0.04973
-0.0537171
-0.0530107
-0.0501522
0.181415
-6.19515
6.20887
0.0133833
-0.0496427
-0.0490827
-0.0488932
-0.049828
0.170333
-6.22268
6.23464
0.0136218
-0.0473906
-0.0475681
-0.0473332
-0.0476552
0.164335
-6.24437
6.25169
0.0138375
-0.0444693
-0.0445667
-0.0442935
-0.0447358
0.156885
-6.25814
6.26282
0.0140604
-0.0418902
-0.0421716
-0.0419578
-0.0420861
0.149359
-6.26704
6.26937
0.0142398
-0.0397408
-0.0401683
-0.0400225
-0.0398765
0.143241
-6.2727
6.27478
-0.153637
0.0144749
25.0646
-0.614278
0.116371
-6.27542
-6.27077
-6.27625
-6.27148
25.0398
-0.607591
0.117874
25.012
-0.602569
0.11847
24.9833
-0.59951
0.119115
24.9553
-0.599006
0.119849
24.9278
-0.599748
0.120582
24.9009
-0.601024
0.121271
24.8752
-0.602794
0.121907
24.85
-0.604735
0.122465
24.8258
-0.606982
0.122925
24.8026
-0.609345
0.12325
24.7806
-0.61153
0.123369
24.7591
-0.613672
0.12335
24.7391
-0.615658
0.123032
24.7201
-0.617231
0.122417
24.7023
-0.618661
0.121428
24.6862
-0.61994
0.120008
24.672
-0.621639
0.118157
-0.62457
0.115802
24.9999
0.00714651
0.000853879
24.9965
0.0239402
0.00177498
24.989
0.0423065
0.00281079
24.9772
0.062549
0.00413594
24.9594
0.0881328
0.00588804
24.9322
0.122634
0.00819838
24.8888
0.171136
0.0113001
24.816
0.240959
0.0156479
6.1703
0.348413
0.0215336
6.16985
6.17029
6.1697
-0.0653903
6.14454
0.0879207
0.00323266
-0.0196897
-1.52743
1.52225
0.0242529
0.000610978
-0.0194438
-1.50399
1.49187
0.0307923
0.000769167
-1.46857
0.0522025
1.47858
-0.0633516
0.0011304
-1.5304
0.0841052
1.53917
-0.0941154
0.00123396
-1.53728
0.0602864
-0.0641512
0.00192417
1.53922
-1.54851
0.0582726
-0.06317
0.00229932
1.55111
0.0552543
-1.55699
1.55849
-0.0591018
0.00235181
0.0505072
-1.56154
1.56213
-0.053214
0.00211627
0.0470216
-1.56295
1.56311
-0.0489097
0.00172236
0.044042
-1.5628
1.56255
-0.0451441
0.00135911
-1.55678
0.165175
6.17153
-0.156782
0.0139786
-1.54276
-1.55597
-1.53839
23.8809
-0.682832
0.0608618
-6.11272
-5.80342
-6.11931
-5.83771
23.8834
-0.6722
0.0620482
23.8875
-0.668427
0.0617494
23.8933
-0.666116
0.0608239
23.8998
-0.665265
0.0597814
23.9067
-0.665306
0.0586655
23.9141
-0.665881
0.0574463
23.9219
-0.666756
0.0561188
23.9303
-0.66783
0.0546994
23.9391
-0.668971
0.0532134
23.9481
-0.670034
0.0516836
23.9575
-0.671036
0.050103
23.9671
-0.671755
0.0485425
23.9766
-0.672102
0.0469381
23.9863
-0.672245
0.0452706
23.9961
-0.671964
0.0434834
24.0061
-0.671358
0.0414747
24.0158
-0.670468
0.0391046
-0.668908
0.0362442
25.003
0.00327601
0.000687306
25.0035
0.0220749
0.00137157
25.0005
0.0430929
0.00216704
24.9947
0.0652411
0.00310818
24.9858
0.092742
0.00431647
24.9721
0.13049
0.00588549
24.9521
0.183268
0.00783861
24.9205
0.262188
0.0103556
6.21265
0.389211
0.0133927
6.22074
6.2124
6.22056
-0.106355
6.19706
0.12
0.0019462
-0.0394101
-1.54177
1.53557
0.0452686
0.000344894
-0.0819657
-1.50579
1.48705
0.100248
0.000455892
0.00449784
-0.0747255
0.0749286
-0.00473321
3.22798e-05
-0.0214132
0.000449095
0.0209251
2.29125e-06
3.67902e-05
-0.212125
0.0114133
-0.0238066
0.000154492
0.224364
-1.20773
0.0657823
-0.0827112
-0.00124685
1.2259
0.058037
-1.26037
1.26642
-0.0640358
-5.20021e-05
0.0529995
-1.28496
1.29121
-0.0602995
0.00105024
0.0465478
-1.30743
1.31288
-0.053334
0.00133287
0.0421101
-1.32828
1.33478
-0.0494654
0.000854492
-1.37956
0.189384
5.79943
-0.207297
-0.00627823
-1.49172
-1.40678
-1.49718
24.0345
-0.643784
-0.0861043
-5.84771
-6.16684
-5.80793
-6.16492
24.07
-0.620364
-0.0873846
24.1008
-0.611532
-0.0877224
24.1294
-0.606251
-0.088382
24.1556
-0.602079
-0.0893937
24.1801
-0.599168
-0.0906527
24.2037
-0.59736
-0.0921768
24.227
-0.596238
-0.0937882
24.2502
-0.595633
-0.0953715
24.2733
-0.595329
-0.0967617
24.2963
-0.595162
-0.0978438
24.3188
-0.595113
-0.0984554
24.3407
-0.59502
-0.098636
24.3617
-0.594809
-0.098304
24.3815
-0.594379
-0.0975935
24.4001
-0.593908
-0.0966481
24.4174
-0.593069
-0.0956297
24.4333
-0.5916
-0.0948045
-0.588657
-0.0944598
25.0046
-0.00154804
0.000462504
25.0098
0.0159775
0.000952677
25.0146
0.0368381
0.00147254
25.0184
0.0593922
0.00205233
25.0201
0.088348
0.00267016
25.0249
0.122232
0.00338612
25.0368
0.167327
0.00405634
25.0624
0.231996
0.00450302
6.27382
0.333662
0.00441439
6.28158
6.27418
6.28388
-0.112126
6.28144
0.104006
0.000498341
-0.0447677
-1.57772
1.57937
0.0430731
4.39818e-05
-0.0846307
-1.5976
1.61237
-9.20682e-06
0.0698665
-0.026833
-1.71167
1.75112
-0.000303746
0.0590535
-0.022186
-0.0269353
-0.0222512
0.0980757
-1.71402
1.68442
-0.000827951
-0.0676438
0.102128
-1.60996
-0.00182772
1.59923
-0.0895742
0.0776207
-1.58452
-0.00203664
1.58159
-0.0726561
0.0560042
-1.57698
1.57606
-0.0530194
-0.00206404
0.056321
-1.57432
1.57251
-0.0525255
-0.00198971
0.0502941
-1.57209
1.57143
-0.0477499
-0.00188283
0.0463303
-1.57045
1.56994
-0.0440511
-0.00176924
-1.56756
0.170467
6.26452
-0.152682
-0.0133134
-1.5671
-1.5672
-1.56713
25.0683
-0.528808
-0.107776
-6.26851
-6.26838
-6.26999
-6.26863
25.0691
-0.512321
-0.10884
25.0663
-0.499298
-0.109425
25.0629
-0.492443
-0.110378
25.0603
-0.487721
-0.111701
25.0585
-0.484233
-0.113181
25.0575
-0.481507
-0.114809
25.0567
-0.479075
-0.116435
25.0567
-0.477542
-0.118015
25.0568
-0.475999
-0.119474
25.0569
-0.474473
-0.120811
25.0572
-0.473568
-0.12184
25.0575
-0.472551
-0.122727
25.0573
-0.471315
-0.123351
25.0575
-0.470654
-0.123861
25.0576
-0.46975
-0.124314
25.058
-0.46865
-0.124787
25.0588
-0.467027
-0.125408
-0.465028
-0.126158
25.0056
-0.00642103
0.000255756
25.0138
0.00720189
0.000550059
25.0265
0.0232575
0.000815987
25.0376
0.0472799
0.00103049
25.0527
0.0720878
0.00114216
25.0759
0.0978981
0.00104855
25.1136
0.128979
0.000587661
25.1767
0.169524
-0.000683304
6.3201
0.232323
-0.00323994
6.3182
6.32438
6.31849
-0.0892501
6.33613
0.0739024
-0.000693707
-0.0334395
6.41252
0.0889105
-0.00155621
-0.0346667
-0.0336515
-0.0343688
-6.36374
-0.0338662
6.51651
0.0776656
-0.0032004
-0.0266634
-0.0338885
-0.0267278
-6.46984
-0.00814865
-6.54747
6.51452
-0.00347515
-0.00565632
0.0141922
-0.00847064
0.0445025
0.0446481
-6.53665
6.51493
-0.120947
-0.00873199
0.0384503
0.0354306
0.032865
0.0543735
-6.4503
6.4125
-0.174959
-0.0109825
0.0548953
0.0567319
0.0577183
0.0554957
-6.37248
6.34039
-0.172453
-0.0122846
0.0541643
0.0544258
0.0527337
0.045516
-6.32242
6.31137
-0.153741
-0.0131206
0.0445501
0.0442676
0.0435936
0.0433849
-6.3028
6.29695
-0.152516
-0.0136212
0.0431423
0.0428434
0.0426276
0.0403356
-6.29245
6.28698
-0.139681
-0.0138582
0.0398307
0.0397367
0.0391157
0.0373996
-6.28258
6.27698
-0.12776
-0.0139369
0.0369308
0.0367864
0.0361842
0.137861
-6.27521
6.27318
-0.121825
-0.0140012
25.0695
-0.39906
-0.118271
-6.27044
-6.27039
-6.27053
-6.26963
25.0603
-0.384452
-0.118626
25.0554
-0.375386
-0.119014
25.052
-0.369435
-0.119609
25.05
-0.365403
-0.120267
25.0488
-0.362217
-0.120874
25.0486
-0.3598
-0.12141
25.0491
-0.357752
-0.121871
25.0498
-0.355997
-0.12225
25.0508
-0.354442
-0.122538
25.0519
-0.352816
-0.122765
25.053
-0.351831
-0.122872
25.0538
-0.350445
-0.122867
25.0551
-0.349743
-0.12285
25.0561
-0.348798
-0.12284
25.0569
-0.34771
-0.122867
25.0583
-0.347086
-0.123018
25.0609
-0.346219
-0.123389
-0.345515
-0.12405
25.0061
-0.0112408
0.000128441
25.0157
-0.0026206
0.00024171
25.0243
0.0143773
0.000278219
25.0405
0.0307862
0.00021512
25.0669
0.0457906
-0.000102955
25.1001
0.065408
-0.000811007
25.1474
0.0836521
-0.00213877
25.2138
0.10754
-0.00454662
25.3228
0.131888
-0.0086994
25.4284
0.146568
-0.0155231
-0.0616366
-0.0574916
-0.059288
-0.0583192
25.5779
0.135489
-0.0259256
-0.0615811
-0.065263
-0.0632269
-0.069268
25.7142
0.059228
-0.0405153
-0.0434385
-0.0297725
-0.0478761
-0.0341979
25.5943
-0.151716
-0.0576786
0.0195079
0.122352
0.0174403
0.169537
25.5028
-0.233171
-0.0756167
0.0815895
0.115297
0.096946
0.106028
25.4342
-0.243887
-0.0901125
0.0812194
0.146512
0.0297498
0.144709
25.3485
-0.347526
-0.100376
0.133215
0.135982
0.131358
0.132863
25.2644
-0.316791
-0.106759
0.12663
0.130144
0.12398
0.126972
25.1978
-0.326543
-0.110814
0.129426
0.126356
0.12589
0.122368
25.1538
-0.305468
-0.113442
0.119276
0.11615
0.115707
0.111852
25.1289
-0.286734
-0.115222
0.108712
0.108569
0.103951
0.105652
25.1084
-0.272767
-0.11651
0.104222
0.103639
0.101552
0.10039
25.0903
-0.263462
-0.117396
25.0789
-0.25497
-0.118102
25.0715
-0.249094
-0.118842
25.0662
-0.244518
-0.119637
25.0623
-0.24123
-0.120296
25.0601
-0.2391
-0.120866
25.0582
-0.236623
-0.121326
25.0573
-0.235161
-0.121674
25.0567
-0.233403
-0.121918
25.0566
-0.232297
-0.122066
25.057
-0.231084
-0.122143
25.0571
-0.229718
-0.122178
25.0577
-0.228946
-0.122116
25.0579
-0.227777
-0.122135
25.0582
-0.226948
-0.122177
25.0592
-0.226394
-0.122317
25.0606
-0.225845
-0.12261
25.0619
-0.224479
-0.123117
-0.223466
-0.123873
25.0064
-0.0157598
1.13253e-05
25.0092
-0.00544983
1.94793e-05
25.0165
0.00709601
-9.28613e-05
25.0357
0.0118844
-0.000332753
25.0608
0.0214995
-0.000922575
25.09
0.0382163
-0.00203672
25.1378
0.0395866
-0.00389754
25.1991
0.0529327
-0.0069021
25.2786
0.0637773
-0.0116935
25.3752
0.0684154
-0.0188386
25.4835
0.0555939
-0.0288642
25.5656
0.0186159
-0.0420982
25.5448
-0.0742201
-0.0573087
25.5315
-0.148041
-0.0724815
25.4091
-0.0366715
-0.0853532
25.3266
-0.170159
-0.0951907
25.2761
-0.164794
-0.101761
25.2141
-0.158205
-0.106352
25.1684
-0.150317
-0.109456
25.1355
-0.142147
-0.111691
25.1111
-0.13496
-0.113388
25.092
-0.129709
-0.114622
25.0782
-0.125477
-0.11568
25.0682
-0.122522
-0.11654
25.0612
-0.120211
-0.117276
25.0564
-0.118661
-0.117752
25.0526
-0.117218
-0.118098
25.0505
-0.116241
-0.118304
25.0493
-0.115647
-0.118306
25.0488
-0.114647
-0.118195
25.0487
-0.114226
-0.117974
25.0486
-0.113375
-0.11768
25.0493
-0.113069
-0.117307
25.0497
-0.112374
-0.116939
25.0506
-0.112126
-0.11662
25.0515
-0.111469
-0.116358
25.0527
-0.111352
-0.116202
25.0541
-0.111025
-0.11621
25.0566
-0.110531
-0.116455
-0.111019
-0.11702
24.9866
-3.03658e-05
24.9812
-4.2766e-05
24.9885
-0.000226256
25.0008
-0.000490164
25.0235
-0.00122678
25.064
-0.00245705
25.1079
-0.00448622
25.1683
-0.00771889
25.2444
-0.0127002
25.3321
-0.0197805
25.4164
-0.0293129
25.4757
-0.0413935
25.4556
-0.0549578
25.3753
-0.0684897
25.4184
-0.0803441
25.3379
-0.0900436
25.2696
-0.0967951
25.2127
-0.101424
25.167
-0.104692
25.132
-0.107108
25.106
-0.108986
25.0868
-0.11043
25.0729
-0.111578
25.0628
-0.112447
25.0558
-0.113197
25.0509
-0.113716
25.0478
-0.11407
25.0458
-0.11432
25.0445
-0.114304
25.0441
-0.114196
25.0438
-0.114004
25.0442
-0.113691
25.0444
-0.113314
25.045
-0.112958
25.0456
-0.112702
25.0466
-0.112501
25.0477
-0.112405
25.0491
-0.112475
25.0514
-0.112783
-0.11342
24.9961
0.000975646
0.00266888
24.9898
0.00373742
0.00544287
24.9794
0.00636257
0.00865393
24.9639
0.00961207
0.0126209
24.943
0.0126507
0.0177031
24.9142
0.0176812
0.0243527
24.8726
0.0263844
0.032984
24.8154
0.0369284
0.0440204
24.7596
0.0292447
0.0577551
24.7227
0.00244906
0.0744508
24.6965
-0.0172725
0.0932994
24.6327
0.0104065
0.113608
24.6604
-0.0910781
0.133856
24.7781
-0.190872
0.152636
24.8116
-0.114853
0.168295
24.8366
-0.113139
0.180418
24.8604
-0.117021
0.189642
24.8798
-0.116538
0.196963
24.8963
-0.116886
0.20294
24.9233
-0.129708
0.207937
24.9504
-0.131711
0.21206
24.9714
-0.127323
0.215648
24.9881
-0.124313
0.218825
25.002
-0.122798
0.221628
25.0136
-0.121546
0.224064
25.0236
-0.120969
0.226126
25.0322
-0.120239
0.227817
25.0395
-0.119602
0.229142
25.0459
-0.119262
0.230156
25.0517
-0.118942
0.230906
25.0566
-0.118366
0.231405
25.0608
-0.117778
0.231703
25.0649
-0.117691
0.231821
25.0688
-0.117595
0.231881
25.0723
-0.117013
0.231815
25.0758
-0.117028
0.231749
25.0792
-0.116847
0.231525
25.0828
-0.11683
0.231318
25.087
-0.117175
0.230927
-0.11749
0.229838
24.9961
0.00205526
0.00259954
24.9898
0.00755212
0.00531059
24.9788
0.0133824
0.00846202
24.9633
0.0193605
0.0123796
24.9419
0.0259236
0.0174225
24.9147
0.0336384
0.0240652
24.882
0.0438842
0.0327587
24.8395
0.0587897
0.0440421
24.7766
0.0647619
0.0584027
24.7003
0.0427154
0.076187
24.6561
-0.0192099
0.0969447
24.5927
0.0161024
0.119764
24.6273
-0.194538
0.142577
24.7599
-0.403107
0.163428
24.842
-0.28534
0.180098
24.9112
-0.277624
0.192609
24.9623
-0.26867
0.202071
25.0029
-0.26169
0.209458
25.0483
-0.269851
0.215482
25.0807
-0.272004
0.220356
25.0997
-0.262502
0.224341
25.1133
-0.254171
0.227818
25.1224
-0.248
0.230982
25.1292
-0.245409
0.233777
25.1345
-0.243881
0.236202
25.1381
-0.242478
0.238279
25.1405
-0.241365
0.240053
25.1427
-0.241264
0.241543
25.1441
-0.240807
0.242771
25.1449
-0.240387
0.243752
25.1457
-0.240206
0.244505
25.1467
-0.239987
0.245054
25.147
-0.239488
0.245476
25.1473
-0.239457
0.245749
25.1482
-0.239458
0.245921
25.1486
-0.239044
0.246
25.1496
-0.239291
0.245978
25.1511
-0.239755
0.245845
25.1526
-0.239949
0.245561
-0.2408
0.244513
24.9961
0.00325825
0.00246921
24.9899
0.011393
0.00505137
24.979
0.0204645
0.00807455
24.9628
0.0299748
0.0118621
24.9402
0.0405969
0.0167865
24.9106
0.0523382
0.0233518
24.8727
0.0666012
0.0321129
24.8263
0.0844881
0.0437722
24.7605
0.102241
0.0591381
24.6653
0.0997795
0.0789187
24.5859
0.00640963
0.103271
-0.00296313
0.00711494
-0.00066447
24.7176
-0.0359207
0.130628
-0.0562193
-0.0337412
-0.0533823
24.5749
0.0239774
0.15776
-0.0925813
0.0273478
-0.0885805
24.7386
-0.211943
0.182201
-0.121362
-0.207746
-0.116647
24.8315
-0.125868
0.199534
-0.118186
-0.121348
-0.113172
24.8927
-0.114771
0.211449
-0.112931
-0.110424
-0.107991
24.9466
-0.111442
0.220203
-0.11068
-0.106941
-0.105917
25.0116
-0.113491
0.227035
-0.112456
-0.109044
-0.107862
25.0542
-0.110257
0.232603
-0.10922
-0.106063
-0.105582
25.0809
-0.107292
0.237008
-0.105995
-0.103876
-0.102237
25.1002
-0.40366
0.240251
25.1136
-0.390728
0.243362
25.1222
-0.381078
0.246445
25.1282
-0.377607
0.249928
25.1323
-0.375561
0.252765
25.1348
-0.373907
0.255411
25.1364
-0.372616
0.257188
25.1367
-0.372091
0.258901
25.1365
-0.371811
0.260319
25.1366
-0.372378
0.261478
25.1359
-0.371663
0.262397
25.1353
-0.371898
0.263117
25.1353
-0.371958
0.26343
25.1348
-0.371585
0.264112
25.1341
-0.371567
0.264425
25.1339
-0.371549
0.264639
25.1338
-0.371852
0.264726
25.1339
-0.372378
0.264649
25.1348
-0.373211
0.264384
-0.374137
0.263341
24.997
0.00423223
0.00226573
24.9909
0.0152433
0.00465152
24.9801
0.0276728
0.00745756
24.9641
0.0408654
0.0109995
24.9412
0.0560166
0.0156556
24.9083
0.0748523
0.021944
24.8636
0.0967766
0.03055
24.8056
0.122204
0.0423315
24.7375
0.141685
0.0585145
6.14287
0.0382539
0.0806486
0.0539954
0.0387021
0.0546102
6.16272
6.14345
6.1626
-0.0116647
6.12544
0.0178497
0.0177107
-0.0154336
-6.11316
6.10096
-0.0316224
0.0234017
-0.0192362
-6.10464
6.09721
0.0215161
0.0292064
-0.0228479
-6.1125
6.14475
-0.25599
0.0347096
-0.0252671
-6.16305
6.17734
-0.153244
0.0384008
-0.02661
-6.19085
6.20197
-0.139743
0.0404659
-0.0274836
-6.21322
6.22771
-0.140365
0.0418725
-0.0282072
-6.24068
6.24802
-0.135716
0.0430322
-0.0288772
-6.25403
6.25944
-0.130877
0.0440426
-0.0294879
-6.2634
6.26768
-0.127087
0.044983
25.1147
-0.139534
0.25712
-0.140162
-0.140014
-0.138191
-6.27186
-6.2761
-6.2715
-6.27587
25.1217
-0.53332
0.259885
25.1244
-0.520255
0.262543
25.1256
-0.517779
0.266707
25.1245
-0.515315
0.270477
25.1211
-0.513421
0.274274
25.1172
-0.512976
0.277211
25.1124
-0.512876
0.279999
25.107
-0.513025
0.282355
25.1009
-0.513698
0.284272
25.0951
-0.513727
0.285766
25.0892
-0.513998
0.286883
25.083
-0.513649
0.287403
25.0771
-0.513523
0.288182
25.0711
-0.513206
0.288398
25.0653
-0.513166
0.288513
25.0591
-0.512773
0.288296
25.0531
-0.513221
0.287783
25.0482
-0.514705
0.286851
-0.515579
0.284851
24.9985
0.00371929
0.00199757
24.9935
0.0183173
0.00410219
24.9841
0.0339456
0.00658517
24.9695
0.050855
0.00972965
24.9474
0.0715248
0.0138869
24.9152
0.0979938
0.0192947
24.8663
0.132488
0.027416
24.7932
0.176582
0.0384165
6.17342
0.227634
0.0540983
6.16612
6.17425
6.16651
-0.00797763
6.15809
0.0494144
0.0121604
-0.0112836
6.13204
0.0172464
-6.16091
0.0203093
0.0115124
0.0203253
0.0113991
-0.0406678
-0.0153856
-6.07883
6.04504
0.0236703
-0.0016097
0.00372999
-0.00192877
0.00398722
0.0213379
-0.019863
-6.04332
6.05704
0.0306942
0.0523245
-0.0402665
0.051777
-0.0398032
-0.0486444
-0.0240624
-6.09763
6.13889
0.0369986
-0.0510756
-0.128966
-0.0516073
-0.128475
0.305852
-0.025695
-6.16984
6.18154
0.0392994
-0.0498276
-0.0532071
-0.0501862
-0.0528003
0.180703
-0.0259759
-6.19551
6.21012
0.0397172
-0.0500253
-0.0497659
-0.0504474
-0.0494005
0.171223
-0.0261144
-6.22423
6.23631
0.0398518
-0.0475193
-0.0481368
-0.0480822
-0.0476348
0.165416
-0.0264972
-6.24605
6.25336
0.0402721
-0.0442803
-0.0449743
-0.0451125
-0.0443968
0.157561
-0.0271376
-6.25999
6.26454
0.0411226
-0.041974
-0.0426066
-0.0425193
-0.0420529
0.150567
-0.0278765
-6.2689
6.27131
0.0422981
-0.0402056
-0.0407374
-0.0404539
-0.0402401
0.144789
-6.27408
-0.0285054
6.27652
-0.157254
0.0437898
25.0729
-0.630646
0.247742
-6.27845
-6.27364
-6.27931
-6.27553
25.045
-0.62432
0.249753
25.0142
-0.620007
0.251548
24.9824
-0.616971
0.252587
24.9515
-0.616164
0.253462
24.9212
-0.616436
0.254288
24.8924
-0.617059
0.25426
24.8651
-0.617886
0.2541
24.8389
-0.618577
0.25355
24.8145
-0.619054
0.252628
24.7919
-0.619266
0.251165
24.7707
-0.61913
0.249985
24.7508
-0.618609
0.248347
24.7323
-0.618239
0.246617
24.7145
-0.61779
0.244797
24.6981
-0.617667
0.242762
24.6827
-0.618165
0.240343
24.6687
-0.619934
0.237348
-0.623913
0.233219
25.0021
0.000122581
0.00169043
24.9998
0.0189701
0.00342339
24.9921
0.0390265
0.00547518
24.98
0.0590738
0.00805533
24.9625
0.0836016
0.0114379
24.9365
0.116853
0.0155106
24.894
0.164063
0.0223412
24.8224
0.232851
0.0311821
6.17228
0.340001
0.0440614
6.17135
6.17264
6.17149
-0.0063616
-0.0644051
6.14665
0.0865352
0.00989977
-0.00207931
-0.0193464
-1.52783
1.52256
0.0239505
0.00275369
-0.00302805
-0.0187784
-1.50403
1.49146
0.0305056
0.00386793
-0.00425249
-1.46907
0.0525116
1.47916
-0.063792
0.00540783
-0.00550385
-1.52889
0.153452
1.54049
-0.166447
0.00685595
-0.00569115
-1.53688
0.0590413
-0.0619223
1.53867
0.00675901
-1.54835
-0.00464722
0.0584309
-0.0629661
0.00620319
1.55133
-0.00412612
0.0550846
-1.5576
1.55919
-0.0581078
0.00555149
-0.00416887
0.0501121
-1.56252
1.56319
-0.0519234
0.00530772
-0.00457052
0.046763
-1.56423
1.56446
-0.0478618
0.00544544
-0.00507965
0.0441272
-1.56428
1.564
-0.0446017
0.00583308
-1.55818
-0.0216738
0.167221
6.17579
-0.153265
0.0321778
-1.54498
-1.55702
-1.54006
23.8501
-0.711088
0.121479
-6.11324
-5.80351
-6.11458
-5.79896
23.8572
-0.69807
0.128762
23.8645
-0.696847
0.131254
23.8727
-0.695083
0.130789
23.8807
-0.693429
0.129028
23.888
-0.691739
0.126671
23.8952
-0.690003
0.123205
23.9021
-0.688242
0.119508
23.9092
-0.686489
0.115508
23.9167
-0.684666
0.111346
23.9249
-0.682738
0.106932
23.9336
-0.680808
0.103088
23.9433
-0.678847
0.0991651
23.9535
-0.676981
0.0954502
23.9644
-0.675322
0.0918608
23.976
-0.673973
0.0882571
23.9879
-0.673017
0.0843621
23.9999
-0.672499
0.0796972
-0.672346
0.0733691
25.0089
-0.00102378
0.00128048
25.0095
0.0171049
0.00263756
25.0059
0.0405556
0.00418445
24.999
0.0630779
0.00606396
24.9889
0.0896532
0.00843438
24.9751
0.125537
0.0110053
24.9554
0.176159
0.0155215
24.9245
0.253294
0.0207493
6.21323
0.380119
0.027867
6.22148
6.21335
6.22187
-0.00385036
-0.104698
6.19762
0.118144
0.00601911
-0.00119874
-0.0392804
-1.54175
1.53559
0.045063
0.00158207
-0.00163034
-0.0819691
-1.50541
1.48688
0.100065
0.00205232
-0.000143824
0.00458087
-0.0748365
0.0750926
-0.00484142
0.000148841
-0.00510014
-0.241824
0.0203822
-0.0324499
0.00914207
0.249851
-1.18558
-0.00131692
0.0593602
-0.0785202
0.00204562
1.20401
0.0034719
0.0483552
-1.23919
1.2447
-0.0561656
-0.00118081
0.00610361
0.0448454
-1.26201
1.26837
-0.0540394
-0.00327538
0.00675435
0.0393301
-1.28528
1.29115
-0.0477271
-0.0042222
0.00667411
0.0357229
-1.30801
1.31542
-0.0449462
-0.00485198
-1.36669
0.0252866
0.176046
5.78169
-0.207456
-0.0299012
-1.48782
-1.39822
-1.49293
24.0372
-0.664141
-0.182159
-5.84221
-6.16193
-5.82175
-6.16222
24.0765
-0.640571
-0.184191
24.1114
-0.634653
-0.184762
24.1444
-0.630707
-0.185752
24.1754
-0.627135
-0.1867
24.2047
-0.624193
-0.187435
24.2322
-0.621837
-0.187911
24.258
-0.619702
-0.188063
24.2816
-0.617672
-0.187831
24.303
-0.615613
-0.18718
24.3222
-0.613677
-0.186148
24.3398
-0.611996
-0.184771
24.356
-0.610509
-0.183217
24.3712
-0.608962
-0.181549
24.3858
-0.607567
-0.179939
24.4001
-0.60634
-0.178576
24.4145
-0.605239
-0.177778
24.4288
-0.603741
-0.177878
-0.600619
-0.179292
25.008
-0.00584461
0.000896078
25.0148
0.00944916
0.00182871
25.0212
0.0328237
0.00283409
25.0247
0.0576122
0.00395695
25.0237
0.0881053
0.00521908
25.0277
0.118466
0.0063538
25.0393
0.160499
0.00800947
25.0672
0.220629
0.00912993
6.27545
0.311187
0.00946696
6.28755
6.27697
6.29091
-0.00104152
-0.109732
6.28292
0.101674
0.00160252
-0.00017785
-0.0444956
-1.57773
1.57946
0.0427175
0.000214095
0.000155098
-0.0823035
-1.60005
1.61657
0.0658763
-0.000243029
0.00161399
-0.0267129
-1.71243
1.75062
0.0599784
-0.000643483
-0.0220888
-0.0276948
-0.0225937
0.0029239
0.109036
-1.71127
1.68077
-0.0781347
-0.00328786
0.10557
-1.61048
0.00416766
1.59919
-0.0933474
-0.00509314
0.00482331
0.0743037
-1.58358
-0.00605796
1.5812
-0.0707021
0.00521893
0.0531461
-1.57747
1.57587
-0.0503276
-0.00644573
0.00550924
0.0543683
-1.57484
1.57336
-0.0517302
-0.00666992
0.00572362
0.0484444
-1.57244
1.57178
-0.0466586
-0.00684108
0.00580034
0.0449115
-1.56895
1.56926
-0.044085
-0.00694504
-1.5694
0.0243578
0.173641
6.27161
-0.15379
-0.0371976
-1.56959
-1.56943
-1.57021
25.0767
-0.523327
-0.231187
-6.27442
-6.26842
-6.27813
-6.27307
25.0773
-0.516842
-0.233197
25.0751
-0.507122
-0.234759
25.0728
-0.501595
-0.237184
25.0708
-0.496869
-0.23994
25.0698
-0.493602
-0.242696
25.0691
-0.490587
-0.245353
25.0687
-0.487892
-0.24783
25.0684
-0.485378
-0.250045
25.068
-0.482738
-0.25194
25.0674
-0.480423
-0.2535
25.0671
-0.478534
-0.254966
25.0663
-0.476764
-0.255684
25.0651
-0.47462
-0.256435
25.0642
-0.473455
-0.257095
25.0634
-0.47198
-0.257889
25.0629
-0.470494
-0.25903
25.0628
-0.468371
-0.260718
-0.466013
-0.262876
25.0065
-0.0100036
0.000538595
25.0162
-0.000751579
0.00107595
25.0299
0.0183755
0.00156559
25.0378
0.048699
0.00197384
25.0549
0.0698241
0.00219256
25.0779
0.094336
0.00202578
25.1154
0.122293
0.00111491
25.1804
0.155935
-0.00120934
6.32897
0.198012
-0.00616758
6.31776
6.33321
6.31625
-0.0864143
0.00130009
6.3472
0.0689137
-0.00204463
-0.0332262
0.00320532
6.42066
0.0893497
-0.00474159
-0.0314617
-0.0334836
-0.0306905
-6.37959
-0.0302913
0.00670471
6.49332
0.0845199
-0.00997413
-0.0296432
-0.0294965
-0.0320432
-6.45309
-0.010176
0.0116032
-6.54239
6.50193
-0.0554556
-0.0180993
0.0623519
-0.0114739
0.0617586
0.0347309
0.0181711
-6.49492
6.4763
-0.142914
-0.0275016
0.0513733
0.0340532
0.0507058
0.058107
-6.45233
0.0232652
6.40802
-0.182206
-0.0347957
0.0574153
0.0615761
0.0608824
0.0556216
0.0260863
-6.36749
6.33941
-0.175565
-0.0390151
0.0535224
0.0547484
0.0526692
0.0449583
0.0276987
-6.32566
6.31876
-0.156204
-0.0414682
0.0442241
0.0441936
0.04357
0.0435166
0.0286046
-6.31465
6.30681
-0.151524
-0.0428544
0.044033
0.0428102
0.04334
0.0427626
0.0289827
-6.29805
6.28898
-0.14135
-0.0435479
0.0403322
0.0421692
0.0397664
0.0379041
0.0290978
-6.28137
6.27339
-0.124792
-0.0438439
0.0349976
0.0384034
0.0362168
0.135561
-6.27171
0.0292311
6.27185
-0.120912
-0.0440133
25.0703
-0.385512
-0.248799
-6.27014
-6.26861
-6.27042
-6.26835
25.0626
-0.378689
-0.249078
25.0582
-0.372012
-0.24969
25.0549
-0.366952
-0.250911
25.0532
-0.363298
-0.25214
25.052
-0.360058
-0.253205
25.0518
-0.357687
-0.254065
25.0523
-0.355562
-0.254692
25.0529
-0.353117
-0.255074
25.0541
-0.351313
-0.255216
25.0552