/*--------------------------------*- C++ -*----------------------------------*\
| =========                 |                                                 |
| \\      /  F ield         | OpenFOAM: The Open Source CFD Toolbox           |
|  \\    /   O peration     | Version:  2306                                  |
|   \\  /    A nd           | Website:  www.openfoam.com                      |
|    \\/     M anipulation  |                                                 |
\*---------------------------------------------------------------------------*/
FoamFile
{
    version     2.0;
    format      ascii;
    arch        "LSB;label=32;scalar=64";
    class       volVectorField;
    location    "0.35";
    object      U;
}
// * * * * * * * * * * * * * * * * * * * * * * * * * * * * * * * * * * * * * //

dimensions      [0 1 -1 0 0 0 0];

internalField   nonuniform List<vector> 
111542
(
(99.9934 0.00528448 0.00278262)
(99.9713 0.0108645 0.00576168)
(99.9303 0.0166856 0.00906523)
(99.869 0.0228718 0.0131667)
(99.7858 0.0291394 0.0184621)
(99.6786 0.034685 0.0254141)
(99.5464 0.0376218 0.0343022)
(99.3915 0.0349648 0.04563)
(99.223 0.0220804 0.059897)
(99.0611 -0.00741378 0.0770913)
(98.9388 -0.0591979 0.0966702)
(98.897 -0.130856 0.117563)
(98.9622 -0.204178 0.138501)
(99.1261 -0.259544 0.157421)
(99.3448 -0.286424 0.172975)
(99.5701 -0.29448 0.185263)
(99.7747 -0.292651 0.194843)
(99.9497 -0.285661 0.202678)
(100.094 -0.276605 0.209324)
(100.21 -0.267628 0.215171)
(100.3 -0.260067 0.220143)
(100.367 -0.254153 0.224469)
(100.417 -0.249557 0.228466)
(100.454 -0.246511 0.23191)
(100.481 -0.244759 0.234809)
(100.501 -0.243805 0.237354)
(100.516 -0.243704 0.239336)
(100.527 -0.244256 0.240809)
(100.534 -0.245089 0.241979)
(100.539 -0.246027 0.242902)
(100.544 -0.246997 0.243605)
(100.548 -0.248014 0.244085)
(100.551 -0.248914 0.244547)
(100.555 -0.249687 0.245053)
(100.559 -0.250381 0.245602)
(100.564 -0.251074 0.246161)
(100.57 -0.25188 0.246632)
(100.577 -0.252722 0.247114)
(100.586 -0.253669 0.247589)
(100.601 -0.254966 0.248084)
(99.9937 0.0157548 0.00272665)
(99.972 0.0323239 0.00558301)
(99.9315 0.0499983 0.00886774)
(99.8705 0.06907 0.0129466)
(99.7866 0.0888674 0.0182048)
(99.6761 0.107232 0.0250931)
(99.5357 0.119174 0.0340782)
(99.365 0.115828 0.0456987)
(99.17 0.0825709 0.0604541)
(98.9693 -0.00155784 0.0785302)
(98.8046 -0.153755 0.0995929)
(98.7421 -0.367473 0.121962)
(98.8265 -0.589865 0.144607)
(99.0367 -0.748983 0.165057)
(99.3008 -0.826686 0.18141)
(99.5548 -0.853083 0.193735)
(99.7745 -0.850376 0.203213)
(99.957 -0.832059 0.210969)
(100.104 -0.807739 0.217567)
(100.218 -0.782954 0.223217)
(100.305 -0.760938 0.228028)
(100.37 -0.744059 0.232356)
(100.417 -0.732095 0.236346)
(100.45 -0.724231 0.239847)
(100.474 -0.718384 0.242805)
(100.492 -0.713343 0.245299)
(100.505 -0.709427 0.247361)
(100.513 -0.706697 0.249052)
(100.519 -0.704794 0.250461)
(100.524 -0.703516 0.251659)
(100.528 -0.702799 0.252709)
(100.531 -0.702651 0.253677)
(100.534 -0.702866 0.254646)
(100.537 -0.703412 0.255655)
(100.541 -0.704345 0.256695)
(100.545 -0.70576 0.257725)
(100.551 -0.707789 0.25868)
(100.558 -0.710322 0.259521)
(100.566 -0.713382 0.260212)
(100.579 -0.717029 0.260826)
(99.994 0.0258612 0.00259119)
(99.9733 0.0531332 0.00530525)
(99.9343 0.082952 0.00846466)
(99.8747 0.11604 0.0124115)
(99.7905 0.152002 0.0175352)
(99.6754 0.188389 0.0243217)
(99.5216 0.218775 0.0333444)
(99.3216 0.229423 0.0452737)
(99.0728 0.193647 0.0608401)
(98.7922 0.0630853 0.080663)
(98.5395 -0.270832 0.105)
(98.4274 -0.731951 0.132204)
(98.5515 -1.14683 0.157147)
(98.8579 -1.38036 0.179315)
(99.2044 -1.47144 0.19581)
(99.5075 -1.49409 0.207149)
(99.7551 -1.47342 0.215486)
(99.9511 -1.43265 0.222389)
(100.102 -1.38694 0.228401)
(100.216 -1.34274 0.233528)
(100.299 -1.30481 0.237653)
(100.357 -1.27261 0.241525)
(100.397 -1.25494 0.245382)
(100.427 -1.24943 0.248979)
(100.45 -1.24842 0.252137)
(100.466 -1.24829 0.254827)
(100.476 -1.24857 0.257081)
(100.482 -1.24918 0.258965)
(100.484 -1.24988 0.260592)
(100.485 -1.25054 0.262099)
(100.485 -1.25117 0.263615)
(100.485 -1.25183 0.265239)
(100.484 -1.25256 0.267023)
(100.483 -1.25342 0.268969)
(100.483 -1.25451 0.271012)
(100.483 -1.256 0.273042)
(100.484 -1.25803 0.274914)
(100.487 -1.26068 0.276489)
(100.491 -1.26394 0.277689)
(100.499 -1.26743 0.278641)
(99.9946 0.0351456 0.00237975)
(99.9759 0.0725419 0.00488266)
(99.9404 0.114367 0.00781417)
(99.8848 0.162483 0.0115025)
(99.8037 0.217914 0.0163336)
(99.6873 0.279987 0.0228095)
(99.5213 0.344329 0.0315782)
(99.2848 0.398243 0.0434523)
(98.949 0.411915 0.0594684)
(98.4497 0.210864 0.0809956)
(98.1927 0.0315573 0.087751)
(97.8469 -0.623876 0.103182)
(97.9148 -1.42179 0.116266)
(98.3958 -1.92671 0.126819)
(98.8979 -2.06522 0.136194)
(99.2923 -2.08627 0.141321)
(99.6122 -2.04029 0.144165)
(99.8552 -1.96243 0.146138)
(100.034 -1.88159 0.147743)
(100.167 -1.8115 0.148991)
(100.336 -1.86725 0.239703)
(100.376 -1.80372 0.243693)
(100.389 -1.75885 0.24706)
(100.396 -1.73353 0.250297)
(100.402 -1.71925 0.253832)
(100.402 -1.71233 0.257572)
(100.397 -1.71079 0.261261)
(100.385 -1.71282 0.26476)
(100.37 -1.71704 0.268079)
(100.353 -1.72266 0.271305)
(100.333 -1.72915 0.274535)
(100.311 -1.73616 0.277835)
(100.289 -1.7434 0.281198)
(100.266 -1.75067 0.284545)
(100.242 -1.75786 0.287729)
(100.219 -1.76499 0.290555)
(100.195 -1.77218 0.2928)
(100.173 -1.7796 0.294265)
(100.152 -1.78728 0.294848)
(100.129 -1.79425 0.294778)
(99.9956 0.042895 0.00209148)
(99.9804 0.0889872 0.00430291)
(99.951 0.141733 0.00689685)
(99.9041 0.204707 0.0101657)
(99.8331 0.281511 0.0144622)
(99.7265 0.37568 0.0202534)
(99.5646 0.489851 0.0281765)
(99.3147 0.622537 0.0390612)
(98.8713 0.760143 0.0540187)
(98.5272 0.766994 0.0593637)
(97.7143 0.375649 0.072757)
(96.914 -0.691538 0.0894729)
(97.0183 -2.33736 0.102109)
(98.1523 -2.9208 0.110886)
(98.8747 -2.92676 0.121768)
(99.3424 -2.86571 0.127313)
(99.707 -2.72903 0.129919)
(99.9506 -2.57947 0.130991)
(100.111 -2.4472 0.130845)
(100.214 -2.3437 0.12949)
(100.285 -2.29001 0.128102)
(100.232 -2.42491 0.221529)
(100.117 -2.42228 0.220467)
(100 -2.40316 0.219992)
(99.8915 -2.37986 0.221476)
(99.7845 -2.36095 0.2247)
(99.6786 -2.34729 0.228921)
(99.5748 -2.33754 0.23357)
(99.4737 -2.33078 0.238329)
(99.3757 -2.32655 0.243025)
(99.2807 -2.32445 0.247538)
(99.1892 -2.32404 0.251749)
(99.1012 -2.32482 0.255502)
(99.0171 -2.32634 0.25861)
(98.9369 -2.32821 0.260876)
(98.861 -2.33019 0.2621)
(98.7895 -2.33227 0.262092)
(98.7233 -2.33485 0.260705)
(98.664 -2.33894 0.257893)
(98.6061 -2.34698 0.253937)
(99.9971 0.0482216 0.00171712)
(99.9868 0.100473 0.00356439)
(99.9669 0.161487 0.00571585)
(99.9343 0.236677 0.00839679)
(99.8835 0.332707 0.0118782)
(99.804 0.458723 0.0165155)
(99.6764 0.62823 0.0227935)
(99.4639 0.861375 0.0313314)
(99.0422 1.18939 0.0428947)
(98.632 1.35077 0.0474819)
(97.6757 1.49 0.0457514)
(95.5685 0.7113 0.0421191)
(94.3949 -3.43692 0.0547453)
(98.2292 -4.6914 0.0442944)
(98.7423 -3.85655 0.0666121)
(99.3162 -3.78885 0.0756128)
(99.715 -3.54115 0.070968)
(99.8838 -3.2695 0.0545851)
(99.9289 -3.03964 0.0332013)
(99.8941 -2.83829 0.022091)
(98.8025 -2.60531 0.073676)
(95.3925 -2.19831 0.12496)
(95.4086 -2.28009 0.111731)
(95.4496 -2.33255 0.104882)
(95.4835 -2.37035 0.102285)
(95.5127 -2.40401 0.101397)
(95.5429 -2.43555 0.100452)
(95.5754 -2.46468 0.0986296)
(95.6099 -2.49141 0.0957702)
(95.646 -2.51602 0.0920253)
(95.6834 -2.53867 0.087617)
(95.722 -2.55935 0.082734)
(95.7615 -2.5779 0.0774957)
(95.8015 -2.59411 0.0719826)
(95.8418 -2.60777 0.0662457)
(95.8823 -2.61879 0.0603033)
(95.9231 -2.62726 0.0541296)
(95.9642 -2.63369 0.0476305)
(96.0052 -2.63926 0.0406506)
(96.0524 -2.64697 0.0331578)
(99.9988 0.0502161 0.00138214)
(99.9949 0.104967 0.00278015)
(99.9871 0.169826 0.00437878)
(99.9741 0.251471 0.00631882)
(99.9531 0.358756 0.00873887)
(99.9192 0.505126 0.0118045)
(99.8641 0.71253 0.0156916)
(99.7731 1.01948 0.0205156)
(99.5972 1.4994 0.0262048)
(99.3267 1.89998 0.0286922)
(98.5995 2.83546 0.0264963)
(95.4275 5.81452 0.024484)
(77.1542 -4.40344 0.0353461)
(102.788 -10.2982 0.0204636)
(54.1741 -3.7794 -0.299547)
(77.1605 -4.99459 0.0789605)
(80.4083 -4.05387 0.104242)
(82.3212 -3.46887 0.114008)
(83.73 -3.04781 0.0579129)
(85.101 -2.80588 -0.052059)
(92.4984 -3.56565 0.00514185)
(95.9963 -3.12664 -0.153458)
(96.1471 -3.02026 -0.150214)
(96.3055 -2.9513 -0.150571)
(96.4355 -2.9036 -0.155495)
(96.5449 -2.86776 -0.163936)
(96.6453 -2.84026 -0.1746)
(96.7422 -2.81917 -0.186501)
(96.8373 -2.80289 -0.198848)
(96.9315 -2.79004 -0.210935)
(97.0255 -2.77951 -0.222135)
(97.1189 -2.77043 -0.23192)
(97.2112 -2.76214 -0.239892)
(97.3013 -2.75415 -0.245804)
(97.388 -2.74612 -0.249591)
(97.4705 -2.73783 -0.25137)
(97.5482 -2.72908 -0.25147)
(97.6207 -2.71962 -0.250387)
(97.6879 -2.70881 -0.248787)
(97.7636 -2.69471 -0.247467)
(100.001 0.0483078 0.000983738)
(100.004 0.101142 0.00194873)
(100.009 0.164173 0.00299181)
(100.018 0.244207 0.00414917)
(100.031 0.35033 0.00542013)
(100.051 0.496113 0.00675611)
(100.084 0.702971 0.00799743)
(100.144 1.00677 0.0087306)
(100.286 1.46988 0.00806277)
(100.333 1.88224 0.00794733)
(100.6 2.87105 0.00449441)
(102.389 5.41995 0.00070589)
(111.078 4.1153 -0.0143638)
(109.151 -6.62436 0.0236412)
(102.808 -6.75931 -0.0520507)
(101.12 -4.9328 -0.0644584)
(100.677 -3.91307 -0.0637829)
(100.509 -3.34961 -0.0612709)
(100.427 -3.01614 -0.0591148)
(100.36 -2.817 -0.0585552)
(100.264 -2.58591 -0.109665)
(100.289 -2.21739 -0.213311)
(100.266 -2.12722 -0.212305)
(100.249 -2.07698 -0.211265)
(100.238 -2.05121 -0.21221)
(100.228 -2.03638 -0.215383)
(100.22 -2.02741 -0.220276)
(100.215 -2.02262 -0.226359)
(100.213 -2.02084 -0.233152)
(100.213 -2.02109 -0.240205)
(100.213 -2.02261 -0.247134)
(100.215 -2.02493 -0.253647)
(100.216 -2.02765 -0.259546)
(100.218 -2.03048 -0.264715)
(100.219 -2.03319 -0.269122)
(100.219 -2.03552 -0.272807)
(100.22 -2.03718 -0.275897)
(100.221 -2.03767 -0.278579)
(100.224 -2.03603 -0.281071)
(100.232 -2.03012 -0.283422)
(100.003 0.0423962 0.000563242)
(100.012 0.0888172 0.00110717)
(100.03 0.144217 0.00162697)
(100.059 0.214438 0.00204961)
(100.103 0.30693 0.00225399)
(100.169 0.431823 0.00202176)
(100.272 0.603305 0.000948201)
(100.438 0.840947 -0.00169331)
(100.755 1.16936 -0.00725689)
(100.979 1.41086 -0.00925864)
(101.83 1.87379 -0.0162746)
(103.444 1.79149 -0.0287935)
(105.239 -0.196607 -0.0431165)
(104.803 -2.78553 -0.0248472)
(103.004 -3.50557 -0.0454322)
(101.784 -3.2799 -0.0609494)
(101.154 -2.91947 -0.0694361)
(100.815 -2.61671 -0.0740096)
(100.618 -2.392 -0.0765662)
(100.486 -2.22761 -0.0780922)
(100.391 -2.09992 -0.0795621)
(100.286 -1.84568 -0.22924)
(100.249 -1.81832 -0.23063)
(100.222 -1.79867 -0.231649)
(100.206 -1.78607 -0.232953)
(100.197 -1.77668 -0.234621)
(100.191 -1.76823 -0.236471)
(100.189 -1.7602 -0.238377)
(100.19 -1.75248 -0.240288)
(100.192 -1.74495 -0.242176)
(100.196 -1.7376 -0.244019)
(100.2 -1.73045 -0.245795)
(100.205 -1.7236 -0.247479)
(100.209 -1.7171 -0.249048)
(100.213 -1.71094 -0.250493)
(100.217 -1.70503 -0.251833)
(100.221 -1.69919 -0.253125)
(100.226 -1.6931 -0.254467)
(100.234 -1.68647 -0.256012)
(100.25 -1.67935 -0.257994)
(100.004 0.0329499 0.00025862)
(100.019 0.0690191 0.000501013)
(100.047 0.111921 0.000589994)
(100.092 0.165886 0.000397838)
(100.159 0.235877 -0.000265872)
(100.257 0.327678 -0.00173846)
(100.403 0.447534 -0.004555)
(100.621 0.599914 -0.00957243)
(100.956 0.781121 -0.0181953)
(101.444 0.867359 -0.0322354)
(102.087 0.773393 -0.0534279)
(102.768 0.249915 -0.0823649)
(103.133 -0.734937 -0.114452)
(102.893 -1.56325 -0.14303)
(102.254 -1.86707 -0.170926)
(101.624 -1.86994 -0.192209)
(101.175 -1.78251 -0.205963)
(100.882 -1.67751 -0.214818)
(100.684 -1.57955 -0.220914)
(100.543 -1.49469 -0.225269)
(100.445 -1.4227 -0.228502)
(100.378 -1.36007 -0.231029)
(100.331 -1.31081 -0.23331)
(100.296 -1.27096 -0.235418)
(100.272 -1.23959 -0.237353)
(100.255 -1.21508 -0.239139)
(100.243 -1.19541 -0.240781)
(100.234 -1.17928 -0.242267)
(100.229 -1.16583 -0.243586)
(100.227 -1.1545 -0.244736)
(100.226 -1.14485 -0.245729)
(100.226 -1.13656 -0.246593)
(100.227 -1.12945 -0.247366)
(100.228 -1.12333 -0.248097)
(100.23 -1.11801 -0.248851)
(100.232 -1.11335 -0.249699)
(100.234 -1.10915 -0.250722)
(100.238 -1.10522 -0.252017)
(100.243 -1.10142 -0.253704)
(100.251 -1.09788 -0.25594)
(100.005 0.0208721 2.49066e-05)
(100.023 0.0436197 -3.64547e-06)
(100.059 0.0706624 -0.000232022)
(100.114 0.104264 -0.000836014)
(100.195 0.147255 -0.00209046)
(100.311 0.202 -0.00437406)
(100.475 0.269926 -0.00826746)
(100.703 0.348526 -0.0145741)
(101.013 0.424943 -0.024403)
(101.415 0.460125 -0.0390086)
(101.883 0.398312 -0.0594431)
(102.319 0.164589 -0.0859212)
(102.548 -0.251884 -0.115754)
(102.438 -0.678639 -0.144261)
(102.054 -0.921791 -0.169499)
(101.597 -0.981101 -0.188994)
(101.216 -0.952696 -0.202852)
(100.939 -0.899548 -0.21241)
(100.738 -0.845339 -0.219277)
(100.589 -0.796801 -0.224399)
(100.477 -0.756406 -0.22832)
(100.395 -0.726635 -0.231437)
(100.333 -0.707022 -0.234111)
(100.288 -0.694633 -0.236363)
(100.255 -0.687206 -0.238175)
(100.232 -0.683228 -0.239578)
(100.216 -0.681348 -0.240617)
(100.205 -0.680581 -0.241318)
(100.199 -0.680368 -0.241703)
(100.195 -0.680422 -0.241808)
(100.194 -0.680576 -0.241685)
(100.194 -0.680764 -0.241395)
(100.195 -0.68097 -0.241007)
(100.198 -0.681239 -0.240595)
(100.2 -0.681313 -0.240268)
(100.203 -0.68132 -0.240084)
(100.207 -0.681242 -0.240119)
(100.213 -0.680998 -0.240475)
(100.221 -0.680529 -0.241297)
(100.237 -0.679691 -0.242865)
(100.006 0.0071476 -0.000108467)
(100.026 0.0148985 -0.000212976)
(100.064 0.0241401 -0.000635497)
(100.124 0.0354811 -0.00139871)
(100.212 0.0499375 -0.00296867)
(100.335 0.0680451 -0.00566328)
(100.505 0.0897937 -0.0101056)
(100.732 0.113704 -0.0169866)
(101.025 0.1347 -0.027391)
(101.376 0.140246 -0.0420179)
(101.753 0.110549 -0.061445)
(102.08 0.0250537 -0.0854157)
(102.252 -0.113403 -0.112155)
(102.192 -0.257366 -0.138662)
(101.923 -0.349279 -0.161716)
(101.563 -0.378176 -0.180227)
(101.226 -0.372857 -0.194166)
(100.959 -0.357803 -0.204149)
(100.758 -0.342166 -0.211515)
(100.605 -0.328186 -0.21714)
(100.488 -0.316491 -0.221571)
(100.4 -0.307396 -0.225133)
(100.336 -0.300208 -0.228047)
(100.289 -0.294032 -0.23035)
(100.255 -0.288144 -0.232199)
(100.231 -0.2823 -0.233626)
(100.214 -0.276383 -0.234645)
(100.203 -0.270354 -0.235279)
(100.196 -0.264262 -0.235564)
(100.192 -0.2582 -0.235546)
(100.19 -0.252267 -0.235288)
(100.189 -0.246549 -0.23486)
(100.19 -0.241129 -0.23433)
(100.191 -0.236105 -0.233734)
(100.194 -0.231304 -0.233365)
(100.196 -0.226863 -0.233178)
(100.2 -0.222823 -0.233227)
(100.205 -0.219194 -0.233621)
(100.211 -0.21609 -0.234505)
(100.223 -0.214011 -0.236185)
(99.9938 0.00522913 0.00813701)
(99.9724 0.0106875 0.0167602)
(99.9326 0.0164921 0.026574)
(99.8733 0.0226598 0.0387304)
(99.7928 0.0288945 0.0543373)
(99.689 0.0343838 0.0746608)
(99.5609 0.0374226 0.100804)
(99.4111 0.0350572 0.13418)
(99.2483 0.0226527 0.176025)
(99.0918 -0.00600399 0.226469)
(98.9738 -0.0564341 0.284339)
(98.9341 -0.126636 0.346585)
(98.9978 -0.197952 0.408513)
(99.1563 -0.251471 0.464566)
(99.3672 -0.277458 0.510857)
(99.584 -0.285346 0.547309)
(99.7803 -0.283502 0.575632)
(99.9479 -0.276484 0.598313)
(100.086 -0.267387 0.617006)
(100.197 -0.258572 0.63278)
(100.283 -0.251071 0.64596)
(100.349 -0.245087 0.657267)
(100.399 -0.240451 0.667439)
(100.437 -0.237319 0.67633)
(100.466 -0.235485 0.683899)
(100.489 -0.234578 0.690324)
(100.507 -0.234397 0.695361)
(100.521 -0.234736 0.699134)
(100.532 -0.235347 0.701949)
(100.54 -0.236032 0.703911)
(100.547 -0.236674 0.705076)
(100.553 -0.23722 0.70549)
(100.557 -0.237634 0.705462)
(100.562 -0.237931 0.705123)
(100.565 -0.238155 0.704516)
(100.569 -0.238393 0.70365)
(100.574 -0.23873 0.702457)
(100.579 -0.239222 0.701083)
(100.586 -0.239964 0.699503)
(100.599 -0.241142 0.697685)
(99.9939 0.0155654 0.00795286)
(99.973 0.0318734 0.0163239)
(99.9338 0.0494102 0.0260112)
(99.8748 0.0683372 0.0380454)
(99.7936 0.0879779 0.0535375)
(99.6865 0.106206 0.0737971)
(99.5507 0.118313 0.100252)
(99.3854 0.115589 0.134511)
(99.1965 0.0836173 0.178056)
(99.002 0.00200999 0.231607)
(98.842 -0.145894 0.294305)
(98.7823 -0.353326 0.363058)
(98.8655 -0.570696 0.431656)
(99.0695 -0.727525 0.492825)
(99.3248 -0.804152 0.541393)
(99.57 -0.831265 0.577996)
(99.782 -0.829509 0.605878)
(99.9579 -0.811813 0.628148)
(100.099 -0.787858 0.646518)
(100.21 -0.763535 0.661738)
(100.294 -0.742052 0.674296)
(100.358 -0.725372 0.68545)
(100.405 -0.71335 0.695729)
(100.439 -0.705194 0.704818)
(100.465 -0.699023 0.712508)
(100.484 -0.693841 0.71893)
(100.499 -0.68973 0.724225)
(100.51 -0.686736 0.728536)
(100.519 -0.684571 0.731995)
(100.525 -0.682943 0.734678)
(100.531 -0.681668 0.736649)
(100.535 -0.680642 0.737986)
(100.539 -0.679781 0.738819)
(100.542 -0.679117 0.739241)
(100.546 -0.67876 0.739292)
(100.549 -0.678859 0.738982)
(100.554 -0.679609 0.738291)
(100.559 -0.681137 0.737214)
(100.566 -0.683518 0.735716)
(100.578 -0.686738 0.733834)
(99.9942 0.025517 0.00756372)
(99.9743 0.0524421 0.0155335)
(99.9366 0.0819186 0.0248384)
(99.879 0.114634 0.0364806)
(99.7975 0.150195 0.0516045)
(99.6861 0.186226 0.0716385)
(99.5372 0.216472 0.0983142)
(99.3434 0.227468 0.133691)
(99.1018 0.193022 0.180003)
(98.829 0.0656524 0.239148)
(98.5831 -0.260887 0.311458)
(98.474 -0.712552 0.392199)
(98.5947 -1.11891 0.471702)
(98.8928 -1.34927 0.540343)
(99.2288 -1.44133 0.590605)
(99.5223 -1.46674 0.625107)
(99.7625 -1.44831 0.650013)
(99.9532 -1.40879 0.669856)
(100.1 -1.36361 0.686482)
(100.211 -1.3194 0.700205)
(100.293 -1.28107 0.710638)
(100.351 -1.24825 0.720821)
(100.393 -1.23045 0.731648)
(100.424 -1.22481 0.741908)
(100.447 -1.22329 0.750738)
(100.464 -1.22244 0.758114)
(100.475 -1.22201 0.764264)
(100.481 -1.22201 0.769363)
(100.485 -1.22214 0.773532)
(100.486 -1.22212 0.776873)
(100.487 -1.22178 0.77947)
(100.487 -1.22111 0.781405)
(100.487 -1.22016 0.782755)
(100.486 -1.21905 0.783573)
(100.486 -1.21806 0.783879)
(100.486 -1.21753 0.783652)
(100.486 -1.21781 0.78283)
(100.488 -1.21924 0.781333)
(100.491 -1.22192 0.779126)
(100.498 -1.22541 0.776441)
(99.9948 0.0346502 0.00694697)
(99.9769 0.0715523 0.0143037)
(99.9426 0.112827 0.0229443)
(99.889 0.160288 0.0338358)
(99.8105 0.214932 0.0481299)
(99.698 0.276093 0.0673325)
(99.5372 0.339472 0.093439)
(99.3075 0.392556 0.12902)
(98.9802 0.405893 0.177363)
(98.4916 0.207818 0.242488)
(98.2349 0.0251998 0.275137)
(97.8943 -0.633393 0.349764)
(97.9639 -1.42716 0.427309)
(98.4398 -1.93601 0.495385)
(98.9307 -2.07908 0.541858)
(99.3171 -2.10712 0.568529)
(99.6324 -2.0664 0.584922)
(99.8729 -1.991 0.597818)
(100.051 -1.91068 0.60988)
(100.183 -1.84024 0.621352)
(100.348 -1.87763 0.737098)
(100.386 -1.80839 0.749034)
(100.397 -1.7611 0.7613)
(100.402 -1.73555 0.773147)
(100.405 -1.72141 0.784284)
(100.404 -1.71462 0.794638)
(100.395 -1.71323 0.804126)
(100.381 -1.71531 0.812671)
(100.363 -1.71919 0.82021)
(100.344 -1.72374 0.826685)
(100.323 -1.72822 0.832047)
(100.302 -1.73219 0.836269)
(100.281 -1.73551 0.839345)
(100.259 -1.73825 0.841272)
(100.237 -1.74073 0.842039)
(100.216 -1.74341 0.841601)
(100.193 -1.74689 0.839847)
(100.171 -1.75175 0.836612)
(100.151 -1.75836 0.831731)
(100.128 -1.76579 0.825265)
(99.9958 0.0422375 0.00611924)
(99.9812 0.0876839 0.0126112)
(99.953 0.139666 0.0202578)
(99.9078 0.201659 0.029927)
(99.8394 0.277161 0.0426808)
(99.7364 0.369589 0.0599573)
(99.5795 0.481451 0.0837633)
(99.3364 0.611124 0.116814)
(98.9029 0.744784 0.162727)
(98.5607 0.746438 0.188582)
(97.7558 0.353561 0.253905)
(96.9634 -0.710953 0.336093)
(97.0692 -2.3456 0.426037)
(98.1897 -2.93305 0.498101)
(98.896 -2.94486 0.529981)
(99.3575 -2.89711 0.534055)
(99.7225 -2.76971 0.532866)
(99.9692 -2.62428 0.537575)
(100.133 -2.49384 0.549119)
(100.239 -2.39292 0.564511)
(100.311 -2.34414 0.581688)
(100.258 -2.49182 0.702383)
(100.125 -2.48366 0.717773)
(99.9952 -2.45984 0.72628)
(99.8758 -2.43295 0.731624)
(99.7593 -2.41206 0.735309)
(99.6442 -2.39797 0.73769)
(99.5323 -2.38868 0.739006)
(99.4247 -2.38231 0.739477)
(99.3222 -2.37743 0.739214)
(99.2255 -2.37302 0.738219)
(99.1349 -2.36839 0.736425)
(99.0503 -2.36327 0.73372)
(98.9716 -2.35776 0.72998)
(98.898 -2.35228 0.725058)
(98.8286 -2.34743 0.718777)
(98.7629 -2.34403 0.710859)
(98.7008 -2.34316 0.700931)
(98.6437 -2.34636 0.688544)
(98.5867 -2.35647 0.673613)
(99.9973 0.0475167 0.00512581)
(99.9876 0.0989637 0.0105307)
(99.9685 0.158996 0.0168537)
(99.9373 0.232881 0.0247817)
(99.8885 0.327077 0.0351461)
(99.8119 0.450457 0.0490771)
(99.6883 0.616103 0.0681503)
(99.4814 0.843534 0.0945231)
(99.0676 1.16293 0.130962)
(98.6603 1.32065 0.152691)
(97.7104 1.45432 0.182425)
(95.6167 0.669932 0.235336)
(94.4456 -3.46764 0.322051)
(98.2853 -4.69563 0.402397)
(98.7768 -3.78637 0.414962)
(99.3332 -3.74485 0.354286)
(99.749 -3.51379 0.292177)
(99.9386 -3.24992 0.264153)
(100.002 -3.03272 0.267815)
(99.976 -2.85411 0.291576)
(98.8712 -2.63215 0.382164)
(95.2358 -2.2821 0.373222)
(95.274 -2.38509 0.391146)
(95.3318 -2.4446 0.393509)
(95.3791 -2.48127 0.390249)
(95.418 -2.509 0.385383)
(95.4538 -2.53173 0.379867)
(95.4882 -2.55041 0.373827)
(95.5211 -2.5656 0.367284)
(95.5534 -2.57765 0.360286)
(95.586 -2.58677 0.352933)
(95.6201 -2.59314 0.345387)
(95.6565 -2.59715 0.33775)
(95.6957 -2.59939 0.330095)
(95.7378 -2.60064 0.322389)
(95.7827 -2.60176 0.314422)
(95.83 -2.60366 0.305739)
(95.8792 -2.60735 0.295564)
(95.9293 -2.61433 0.282684)
(95.9903 -2.62786 0.265215)
(99.9989 0.04947 0.00394871)
(99.9953 0.103346 0.00809933)
(99.9882 0.167106 0.0128555)
(99.976 0.247241 0.0186309)
(99.9562 0.352341 0.0258871)
(99.924 0.495466 0.0351947)
(99.871 0.697937 0.0472387)
(99.7821 0.997316 0.0626533)
(99.6079 1.46543 0.0815978)
(99.3388 1.85962 0.0930881)
(98.6145 2.78277 0.105813)
(95.4582 5.73957 0.127839)
(77.2698 -4.50814 0.150465)
(61.1517 -7.10917 2.00323)
(75.6653 -4.59354 0.859115)
(78.9321 -3.58547 0.421135)
(80.8374 -3.00217 0.0964386)
(82.308 -2.60403 -0.0878291)
(83.8086 -2.4049 -0.212542)
(92.1162 -3.44862 -0.391759)
(96.0035 -3.23368 -0.542711)
(96.1743 -3.14254 -0.55262)
(96.3492 -3.08145 -0.552784)
(96.4948 -3.0367 -0.55058)
(96.6219 -2.99975 -0.548293)
(96.7413 -2.9676 -0.546745)
(96.8556 -2.93917 -0.546249)
(96.9636 -2.91379 -0.546576)
(97.0639 -2.8909 -0.547104)
(97.1556 -2.87007 -0.547104)
(97.2387 -2.85097 -0.545942)
(97.3138 -2.83343 -0.543201)
(97.3821 -2.81741 -0.53874)
(97.4452 -2.80296 -0.532712)
(97.5048 -2.79014 -0.525565)
(97.5628 -2.77894 -0.51808)
(97.6204 -2.76908 -0.511341)
(97.6783 -2.75973 -0.506795)
(97.7503 -2.74857 -0.506135)
(100.001 0.0474728 0.00276251)
(100.004 0.0994619 0.00560902)
(100.01 0.161418 0.00870533)
(100.019 0.239946 0.0121567)
(100.032 0.343868 0.0160031)
(100.052 0.486362 0.0201735)
(100.085 0.688281 0.0243034)
(100.144 0.984679 0.027345)
(100.281 1.43675 0.0267692)
(100.326 1.8427 0.0255876)
(100.589 2.81825 0.0163415)
(102.375 5.33604 -0.0104052)
(110.968 4.05718 -0.066722)
(109.01 -6.48082 -0.195978)
(102.777 -6.68666 -0.288365)
(101.108 -4.86129 -0.33737)
(100.655 -3.85176 -0.354428)
(100.482 -3.29625 -0.365859)
(100.399 -2.97209 -0.374204)
(100.336 -2.78888 -0.380224)
(100.236 -2.63797 -0.474474)
(100.261 -2.29493 -0.646169)
(100.249 -2.20507 -0.657476)
(100.241 -2.15579 -0.664086)
(100.236 -2.13061 -0.670252)
(100.231 -2.11608 -0.67671)
(100.228 -2.10702 -0.683096)
(100.228 -2.10143 -0.689251)
(100.228 -2.09784 -0.695088)
(100.229 -2.0951 -0.700442)
(100.231 -2.09255 -0.705108)
(100.231 -2.08996 -0.708918)
(100.231 -2.08735 -0.711778)
(100.23 -2.08493 -0.713673)
(100.228 -2.08291 -0.714771)
(100.225 -2.0814 -0.715386)
(100.223 -2.08034 -0.716028)
(100.22 -2.07928 -0.717371)
(100.22 -2.07711 -0.720177)
(100.227 -2.0714 -0.724823)
(100.003 0.0416606 0.00161931)
(100.012 0.0873596 0.00325803)
(100.03 0.141804 0.00479411)
(100.059 0.210688 0.00605615)
(100.102 0.301248 0.00671727)
(100.167 0.423307 0.00617338)
(100.268 0.590696 0.00329837)
(100.431 0.822507 -0.00398013)
(100.74 1.14271 -0.0195705)
(100.962 1.37967 -0.0300662)
(101.8 1.83296 -0.0666536)
(103.396 1.74054 -0.135658)
(105.165 -0.23472 -0.235322)
(104.723 -2.78743 -0.351043)
(102.957 -3.51505 -0.440155)
(101.753 -3.29157 -0.49499)
(101.134 -2.937 -0.525748)
(100.804 -2.64005 -0.542643)
(100.611 -2.42026 -0.552303)
(100.481 -2.26069 -0.558069)
(100.386 -2.13601 -0.561958)
(100.285 -1.86356 -0.713952)
(100.25 -1.83548 -0.717758)
(100.225 -1.81645 -0.721109)
(100.21 -1.80371 -0.724363)
(100.2 -1.79303 -0.727485)
(100.195 -1.78242 -0.730276)
(100.193 -1.77158 -0.732619)
(100.194 -1.76058 -0.734449)
(100.196 -1.74952 -0.735693)
(100.2 -1.73852 -0.736291)
(100.204 -1.72777 -0.736228)
(100.208 -1.71745 -0.735555)
(100.212 -1.70774 -0.734379)
(100.216 -1.69869 -0.732928)
(100.22 -1.69024 -0.731511)
(100.224 -1.68224 -0.730544)
(100.229 -1.67433 -0.730529)
(100.236 -1.6662 -0.732028)
(100.251 -1.6581 -0.735576)
(100.004 0.0324034 0.000696914)
(100.019 0.067892 0.00132254)
(100.046 0.110047 0.00156808)
(100.091 0.163011 0.00104392)
(100.157 0.231525 -0.000849172)
(100.253 0.321238 -0.00506451)
(100.396 0.438205 -0.0131333)
(100.609 0.58672 -0.0275416)
(100.936 0.763001 -0.0523606)
(101.413 0.847027 -0.0933929)
(102.041 0.754978 -0.156431)
(102.707 0.242284 -0.244953)
(103.063 -0.718114 -0.35023)
(102.825 -1.53131 -0.459785)
(102.201 -1.83279 -0.54896)
(101.589 -1.83661 -0.609589)
(101.155 -1.75178 -0.647272)
(100.873 -1.65006 -0.67072)
(100.683 -1.55526 -0.68608)
(100.547 -1.47316 -0.696352)
(100.452 -1.40317 -0.70309)
(100.386 -1.34115 -0.707131)
(100.339 -1.29292 -0.711621)
(100.304 -1.25425 -0.716349)
(100.278 -1.22353 -0.720533)
(100.259 -1.19904 -0.723976)
(100.245 -1.17902 -0.726728)
(100.235 -1.16223 -0.728821)
(100.228 -1.14788 -0.73026)
(100.224 -1.13542 -0.731072)
(100.222 -1.12445 -0.731315)
(100.222 -1.11472 -0.731085)
(100.222 -1.1061 -0.730516)
(100.224 -1.09849 -0.729766)
(100.226 -1.09181 -0.729054)
(100.229 -1.08595 -0.72863)
(100.232 -1.08075 -0.728791)
(100.236 -1.07599 -0.729874)
(100.242 -1.07156 -0.732233)
(100.251 -1.06763 -0.736122)
(100.005 0.0205029 2.92028e-05)
(100.023 0.0429152 -6.87004e-05)
(100.058 0.0694742 -0.000731296)
(100.112 0.102519 -0.00248019)
(100.192 0.144583 -0.00612117)
(100.306 0.1981 -0.012736)
(100.466 0.264429 -0.0239719)
(100.689 0.341152 -0.0422018)
(100.992 0.415616 -0.070676)
(101.383 0.450055 -0.113287)
(101.839 0.389883 -0.173507)
(102.263 0.161349 -0.25215)
(102.486 -0.24724 -0.343351)
(102.381 -0.664713 -0.434668)
(102.007 -0.900664 -0.513017)
(101.565 -0.957566 -0.570896)
(101.198 -0.929447 -0.610275)
(100.932 -0.877639 -0.636909)
(100.74 -0.82499 -0.655596)
(100.597 -0.778064 -0.669041)
(100.49 -0.739238 -0.678771)
(100.409 -0.710847 -0.685953)
(100.348 -0.692186 -0.692006)
(100.303 -0.680289 -0.697103)
(100.268 -0.673058 -0.701019)
(100.243 -0.668978 -0.703742)
(100.224 -0.666718 -0.705394)
(100.21 -0.665327 -0.706085)
(100.201 -0.664297 -0.705901)
(100.194 -0.663395 -0.704948)
(100.191 -0.662503 -0.703359)
(100.19 -0.661601 -0.701296)
(100.19 -0.660698 -0.698941)
(100.192 -0.659836 -0.696499)
(100.195 -0.658979 -0.694239)
(100.199 -0.658141 -0.692378)
(100.204 -0.657272 -0.691166)
(100.21 -0.65631 -0.690906)
(100.219 -0.655213 -0.691953)
(100.236 -0.654001 -0.694757)
(100.006 0.00701316 -0.000332229)
(100.025 0.0146886 -0.000762864)
(100.063 0.0237318 -0.00192556)
(100.123 0.0349039 -0.00423512)
(100.209 0.0489975 -0.00877617)
(100.33 0.0666625 -0.0165242)
(100.496 0.0878888 -0.0291484)
(100.718 0.111245 -0.0488667)
(101.003 0.131667 -0.0786075)
(101.345 0.137184 -0.120979)
(101.712 0.108513 -0.177982)
(102.03 0.0256138 -0.249083)
(102.198 -0.108933 -0.329356)
(102.142 -0.249035 -0.409611)
(101.882 -0.337886 -0.480103)
(101.535 -0.365853 -0.535345)
(101.212 -0.360738 -0.575155)
(100.957 -0.346172 -0.603134)
(100.765 -0.331105 -0.623324)
(100.618 -0.317703 -0.638287)
(100.506 -0.30659 -0.649559)
(100.421 -0.298002 -0.658164)
(100.356 -0.291111 -0.664946)
(100.308 -0.285034 -0.670314)
(100.271 -0.279222 -0.67452)
(100.244 -0.273431 -0.677573)
(100.223 -0.267513 -0.6795)
(100.208 -0.261427 -0.680388)
(100.197 -0.255236 -0.680349)
(100.189 -0.249047 -0.679518)
(100.185 -0.242969 -0.678058)
(100.182 -0.237099 -0.676153)
(100.182 -0.231523 -0.673994)
(100.183 -0.226301 -0.671752)
(100.186 -0.221443 -0.669897)
(100.19 -0.216989 -0.668501)
(100.195 -0.212953 -0.667761)
(100.201 -0.209354 -0.667955)
(100.21 -0.206309 -0.669408)
(100.222 -0.204338 -0.672529)
(99.9942 0.00510128 0.0128826)
(99.9742 0.0104307 0.0264881)
(99.937 0.0161288 0.0422391)
(99.8815 0.0221979 0.0617255)
(99.8063 0.028358 0.0866568)
(99.7093 0.0338553 0.119033)
(99.5899 0.0371171 0.160964)
(99.4504 0.0353584 0.214734)
(99.2991 0.0242006 0.282306)
(99.1539 -0.00219088 0.364349)
(99.0451 -0.0492547 0.459307)
(99.0092 -0.11454 0.562317)
(99.0697 -0.181272 0.66505)
(99.2182 -0.231366 0.758746)
(99.4151 -0.255807 0.836786)
(99.6169 -0.263443 0.898404)
(99.7996 -0.261748 0.946274)
(99.9556 -0.254871 0.983977)
(100.084 -0.245877 1.01423)
(100.187 -0.237278 1.03884)
(100.268 -0.23004 1.05897)
(100.331 -0.224029 1.07588)
(100.38 -0.219125 1.0907)
(100.419 -0.215698 1.10394)
(100.449 -0.213655 1.11559)
(100.474 -0.212545 1.12552)
(100.495 -0.212028 1.13366)
(100.512 -0.21188 1.14012)
(100.526 -0.211906 1.14513)
(100.537 -0.211948 1.14884)
(100.546 -0.211921 1.15144)
(100.553 -0.211809 1.15312)
(100.558 -0.211625 1.15414)
(100.562 -0.211405 1.15469)
(100.566 -0.211196 1.15492)
(100.568 -0.211076 1.15488)
(100.571 -0.211125 1.15457)
(100.574 -0.21141 1.15393)
(100.579 -0.212021 1.15276)
(100.588 -0.213132 1.15067)
(99.9944 0.0151846 0.0125797)
(99.9748 0.0311056 0.0258814)
(99.9382 0.0482794 0.0413583)
(99.8831 0.0668489 0.0605981)
(99.8072 0.0861819 0.0853644)
(99.7073 0.104304 0.117802)
(99.5807 0.116828 0.160352)
(99.4268 0.115532 0.215774)
(99.2509 0.0867787 0.286732)
(99.0697 0.0112899 0.374893)