/*--------------------------------*- C++ -*----------------------------------*\
| =========                 |                                                 |
| \\      /  F ield         | OpenFOAM: The Open Source CFD Toolbox           |
|  \\    /   O peration     | Version:  2306                                  |
|   \\  /    A nd           | Website:  www.openfoam.com                      |
|    \\/     M anipulation  |                                                 |
\*---------------------------------------------------------------------------*/
FoamFile
{
    version     2.0;
    format      ascii;
    arch        "LSB;label=32;scalar=64";
    class       volVectorField;
    location    "2";
    object      Force;
}
// * * * * * * * * * * * * * * * * * * * * * * * * * * * * * * * * * * * * * //

dimensions      [1 1 -2 0 0 0 0];

internalField   uniform (0 0 0);

boundaryField
{
    walls
    {
        type            calculated;
        value           uniform (0 0 0);
    }
    inlet
    {
        type            calculated;
        value           uniform (0 0 0);
    }
    outlet
    {
        type            calculated;
        value           uniform (0 0 0);
    }
    NASA
    {
        type            calculated;
        value           nonuniform List<vector> 
14179
(
(-0.0142796 -0.131352 9.55291e-06)
(-0.0127249 -0.105225 6.90755e-06)
(-0.0652558 -0.527805 0.000937525)
(-0.10088 -0.811415 0.00359736)
(-0.0644815 -0.522038 0.000482828)
(-0.109853 -0.883489 0.0039746)
(0.214302 0.930336 -0.000403301)
(0.0976148 0.490043 -6.78367e-05)
(0.670744 3.28868 0.00351433)
(0.106986 0.537141 -7.5924e-05)
(0.000681381 -0.000240644 -1.95573e-07)
(-0.0178764 -0.14634 0.000641541)
(0.130414 0.651381 -0.00266035)
(-0.0356428 -0.324122 0.00153985)
(0.0618455 0.308565 -0.00122892)
(1.37649 0.928544 0.00283103)
(1.39045 0.921586 -0.000446385)
(0.0234691 0.131849 -6.55507e-05)
(0.154038 0.914095 -0.000117786)
(1.28064 0.84887 -0.00391021)
(-0.0168345 -0.235605 -2.64963e-06)
(-0.0209263 -0.194622 -0.000107434)
(-0.0192637 -0.267499 -0.000214671)
(-0.00840967 -0.061297 4.09878e-06)
(-0.012896 -0.106693 2.63505e-05)
(-0.00909282 -0.0662782 2.13921e-05)
(-0.0129772 -0.106889 0.000472063)
(-0.0151896 -0.108849 0.000496968)
(-0.0133634 -0.122058 0.000538127)
(-0.0157076 -0.21558 0.00403065)
(0.04709 0.205655 3.37752e-06)
(0.0530853 0.25033 -5.2364e-06)
(0.0570868 0.269193 -0.000101421)
(0.046456 0.202357 -2.42212e-05)
(0.0621605 0.228018 -2.57146e-06)
(0.0621055 0.227704 -1.19881e-05)
(0.0315257 0.114375 -8.30961e-07)
(0.0327798 0.118867 -4.4133e-06)
(-0.00191037 -0.00919828 0.000157354)
(-0.0130356 -0.063435 0.00075582)
(0.16835 0.614806 -0.00203556)
(0.0982402 0.354196 -0.000777052)
(0.102026 0.512149 -0.000108305)
(-0.0057495 -0.0404761 4.08655e-06)
(-0.00524361 -0.0369045 1.14761e-06)
(0.164665 0.827096 -0.000182474)
(-0.00983498 -0.0680812 0.000344366)
(0.0968302 0.483437 -0.00128234)
(0.089954 0.449536 -0.00132236)
(0.108095 0.441667 -0.000385024)
(0.0846266 0.314599 -2.46656e-05)
(0.0842878 0.313346 -6.48672e-05)
(-0.0584442 1.42577 -0.000184639)
(1.38631 0.921746 -0.000762749)
(-0.0482533 1.18439 7.82122e-05)
(-0.00237843 1.16169 -0.000148681)
(0.0796144 1.20504 1.91599e-05)
(0.0745276 1.12663 -0.000248916)
(-0.0023155 1.02365 -1.35699e-05)
(0.0936129 0.367957 -2.7811e-05)
(0.155728 0.923416 -0.000215057)
(0.00788297 0.0286964 -5.89906e-06)
(-0.022968 0.570423 -0.00156958)
(0.925882 0.631928 0.076014)
(-0.000747724 0.535583 -0.00176835)
(0.0271118 0.411432 -0.00123983)
(0.127478 0.746138 0.00579946)
(-0.0144162 -0.144273 1.27114e-05)
(-0.0142232 -0.130918 1.85879e-05)
(-0.099214 -0.79813 0.00353332)
(-0.0111924 -0.0888013 6.5505e-06)
(-0.0127029 -0.105051 1.46377e-05)
(1.32573 0.877732 -0.00469249)
(1.27876 0.846899 -0.00431392)
(0.345921 2.05122 -0.00990117)
(0.260418 1.53862 -0.00683525)
(-0.111357 -0.896823 0.00255889)
(-0.0558894 -0.347908 0.00160404)
(-0.0551102 -0.345438 0.00163445)
(-0.0417529 -0.245037 0.00115385)
(0.156374 0.674455 -0.00315519)
(0.175037 0.756795 -0.00346775)
(0.762061 1.30841 -5.08452e-05)
(0.762549 1.3073 -0.000319484)
(0.0965234 0.484472 -7.42111e-05)
(0.0863934 0.415076 -4.49495e-05)
(-3.48044e-05 -0.00169825 -8.68684e-07)
(0.00170853 0.00889915 -4.49653e-07)
(0.00174386 0.00910113 -2.65194e-06)
(-2.7024e-05 -0.00164315 2.07578e-07)
(0.107512 0.539777 -6.83625e-05)
(0.103296 0.53283 -6.09064e-05)
(-0.0201272 -0.164523 0.000772313)
(-0.0134865 -0.0966924 0.000475086)
(-0.0203333 -0.145214 0.000680102)
(-0.0123074 -0.0849084 0.000443731)
(-0.0180804 -0.124038 0.000537891)
(0.0853247 0.425753 -0.0019765)
(-0.0201357 -0.183217 0.000842678)
(-0.024824 -0.340996 0.00172001)
(-0.0209834 -0.294717 0.000753293)
(0.0800157 0.399638 -0.00182704)
(1.37363 0.922547 -0.0026645)
(0.0958934 0.565471 -8.59067e-05)
(0.104657 0.585378 -3.64931e-05)
(0.106797 0.597192 -8.96751e-05)
(0.178971 1.24629 -0.000194624)
(0.0992818 0.589042 -8.43592e-05)
(0.152921 0.907434 -0.000129031)
(0.0186574 0.01761 1.64493e-05)
(0.334147 -0.123137 0.00335085)
(0.354121 -0.140399 0.00166442)
(0.0114341 0.0109618 -2.96001e-05)
(-0.00626101 -0.02695 0.000199817)
(0.0224146 0.0826537 -0.000323703)
(0.00290338 0.0101124 2.66249e-05)
(0.0226714 0.0913186 -0.00025218)
(-0.0091655 -0.0409421 0.000208831)
(-0.0013089 -0.00786617 0.00011733)
(0.00476826 0.0199908 -3.63063e-05)
(-0.017872 -0.0864563 0.000402117)
(-0.00108202 0.732828 -0.00310421)
(0.0407178 0.608308 -0.00266561)
(-0.00157754 0.98192 -0.0042272)
(0.0318218 0.481767 -0.00242455)
(-0.0348199 0.870211 -0.00387902)
(1.10691 0.744619 -0.00371767)
(-0.0471901 1.1668 -0.00498043)
(0.109528 0.648235 -0.00387789)
(0.155562 0.609206 -0.00300095)
(0.117165 0.458217 -0.00202374)
(0.107843 0.39352 -0.00171836)
(0.15215 0.555901 -0.00243187)
(0.0627252 0.226323 -0.000986191)
(0.0854002 0.308666 -0.00142108)
(-0.0130063 -0.146573 4.63467e-06)
(-0.0167222 -0.233711 2.71331e-05)
(-0.0102421 -0.0789356 6.10467e-06)
(-0.0082631 -0.060234 7.492e-06)
(0.000604645 0.00174277 0.540462)
(-0.0130024 -0.10231 0.000458742)
(0.000574844 0.00166516 0.513993)
(-0.0144647 -0.110214 0.000504469)
(0.000894485 0.00203627 0.584566)
(-0.0130954 -0.13074 0.000642056)
(0.00114744 0.00248737 0.585556)
(-0.0122084 -0.140623 0.00148417)
(0.0528786 0.249341 -4.54396e-05)
(0.0393953 0.179179 -1.42355e-05)
(0.0397134 0.180648 -3.36413e-05)
(0.0466775 0.203293 -2.79255e-05)
(0.0459629 0.202448 -1.63743e-05)
(0.046201 0.203517 -3.47354e-05)
(0.0614175 0.225205 -6.11331e-06)
(0.0242785 0.120763 -2.0949e-05)
(0.0217391 0.110307 -1.92452e-05)
(0.0318147 0.115387 4.40506e-07)
(0.0273335 0.096163 -1.38605e-06)
(-0.00634815 -0.0290747 0.000281311)
(-0.00539201 -0.0257035 0.000302171)
(0.000447398 0.0013447 0.322592)
(0.000446184 0.00129631 0.315686)
(0.000435721 0.00127203 0.312094)
(0.000328767 0.00127087 0.357704)
(0.0923325 0.314628 -0.000441758)
(0.158109 0.552842 0.00241824)
(-5.85624e-06 0.00129618 0.33594)
(0.000358904 0.000677656 0.303663)
(0.000122472 0.000446372 0.107478)
(0.0808569 0.283828 -0.000599355)
(0.284856 0.661772 -1.01565e-05)
(0.167871 0.591842 4.81733e-05)
(0.166192 0.585969 -5.58013e-05)
(0.0767705 0.358564 -2.87089e-05)
(0.0774342 0.361711 -4.53401e-05)
(0.129807 0.620107 -5.77041e-05)
(0.0762131 0.339407 -3.87479e-05)
(0.0787983 0.35767 -2.34435e-05)
(0.080431 0.365033 -4.29248e-05)
(0.0750584 0.334351 -1.5696e-05)
(-0.00438424 -0.0310423 2.96827e-06)
(-0.00567814 -0.0399781 3.86797e-06)
(0.163393 0.865644 -6.8562e-05)
(0.270303 0.466234 0.0101511)
(0.00113735 0.00459149 0.872864)
(0.000353534 0.00239681 0.416436)
(0.049398 0.143708 -0.000252133)
(-0.011811 -0.0736842 0.000418307)
(-0.0118708 -0.0749457 0.000566394)
(0.00103285 0.00278848 0.686822)
(0.000361538 0.00074103 0.312238)
(0.0960235 0.492871 -0.0003273)
(0.000562396 0.000790403 0.376552)
(0.139777 0.734697 0.00332749)
(0.000588125 0.00157087 0.34977)
(0.000437804 0.00135299 0.332181)
(-0.00029713 0.00108909 0.355704)
(7.05406e-05 0.000575627 0.112666)
(0.0802086 0.383139 -0.00115978)
(0.102815 0.477669 -0.000390517)
(0.00047898 0.000516024 0.206594)
(9.7957e-05 0.000663253 0.10788)
(0.16885 0.709629 -9.78825e-05)
(0.0846535 0.314698 -3.71466e-05)
(0.0806581 0.308768 -3.03504e-05)
(0.0962872 0.392538 -5.60559e-05)
(0.0675437 0.272053 -1.64416e-05)
(-0.826203 2.64127 -0.0202575)
(-0.0520562 1.27468 -4.62245e-05)
(-0.168252 1.57247 0.000688619)
(0.0799059 1.207 -0.000142963)
(0.0585371 1.25317 -7.79906e-05)
(-0.00232416 1.08177 -4.2266e-05)
(0.0306838 1.16086 -5.1631e-05)
(0.122779 1.34822 -0.000136666)
(0.158251 2.04445 -0.000135299)
(0.159553 2.06045 -0.000193242)
(0.12051 1.32386 -0.000114836)
(0.134419 1.37371 -0.000172894)
(0.132526 1.23364 -4.6576e-05)
(0.133827 1.24602 -0.000197079)
(0.130824 1.33667 -5.0991e-05)
(0.0717802 0.297469 -2.58296e-05)
(0.0636488 0.252582 -2.07611e-05)
(0.0937274 0.368306 -2.19038e-05)
(0.114224 0.774014 -0.000140575)
(0.109099 0.687322 -9.73031e-05)
(-0.000295278 0.001477 0.574278)
(0.00100724 0.00400372 0.904856)
(0.0013714 0.00458352 0.000122483)
(0.000465181 0.00412827 0.748318)
(0.00248093 0.00861501 0.000109171)
(0.000543596 0.0106991 0.275835)
(-0.0610425 0.58547 -0.00217242)
(0.00757291 -4.64966e-05 1.75357)
(0.000402295 0.0010515 0.305043)
(0.0141882 0.518953 -0.00177668)
(0.000789248 0.000506944 0.245982)
(0.0232813 0.487623 -0.00154885)
(0.0614531 0.528828 -0.0017774)
(0.0611726 0.518881 -0.00172658)
(0.00039878 0.000851423 0.245488)
(0.000429247 0.000932524 0.270103)
(0.0576278 0.531785 -0.00167587)
(0.0523903 0.528641 -0.00137208)
(0.0474284 0.519158 -3.01231e-05)
(2.30414e-05 -0.000115649 0.226579)
(-0.0192825 -0.105852 0.00139034)
(0.000245805 0.00163693 0.509546)
(0.0914952 0.508858 -0.00131002)
(0.00043912 0.00131157 0.322696)
(0.000441659 0.00131739 0.323951)
(0.482904 -0.19238 -0.00370987)
(0.22274 0.210603 0.00175488)
(0.000188141 0.000235791 0.0780379)
(-0.0525547 -0.516791 0.00157895)
(-0.0688104 -0.555895 0.0017076)
(-0.0560091 -0.550207 0.00211268)
(-0.0692425 -0.559333 0.00175338)
(-0.0756806 -0.610557 0.0023571)
(-0.0589625 -0.578807 0.00245277)
(-0.0827754 -0.667045 0.00284213)
(0.177565 0.768538 -0.00352539)
(0.446185 2.18491 -0.00979545)
(0.181138 0.784404 -0.00358683)
(0.42561 2.08361 -0.0093702)
(-0.0645764 -0.52267 0.000543077)
(-0.0415788 -0.259397 0.00117382)
(-0.105179 -0.845702 0.00376426)
(-0.0473069 -0.294679 0.00133823)
(1.38995 0.921339 -0.00107077)
(1.391 0.92195 -0.000495054)
(0.229422 0.996002 -0.000542645)
(0.629974 3.09093 -0.00296147)
(0.603542 2.96098 -0.00170718)
(0.234397 1.01732 -0.000943977)
(0.426266 2.52739 -0.00149616)
(0.461012 2.73324 -0.0026119)
(0.000231529 -0.00189456 2.87195e-06)
(0.000659424 0.000131992 1.98868e-07)
(0.023432 0.132738 -0.000127201)
(0.0238423 0.134547 -8.25075e-05)
(0.0515502 0.223851 -0.000887859)
(0.0380559 0.172997 -0.000683831)
(0.0617321 0.268831 -0.00110612)
(0.0297329 0.13428 -0.000500192)
(-0.109012 -0.877342 0.00394253)
(-0.0691481 -0.502565 0.00226815)
(0.0194252 0.0917412 -0.000286211)
(-0.0098872 -0.0551269 0.000309797)
(0.0630957 0.230088 -0.00107276)
(0.0710375 0.259017 -0.00118425)
(0.0342582 0.123497 -0.000577806)
(0.0396625 0.142972 -0.00065432)
(0.28256 1.27821 -0.000585668)
(0.175705 0.76223 -0.000180559)
(0.318729 1.50683 -0.000727925)
(0.147488 0.740136 -0.000233399)
(-0.0184677 -0.155506 0.000195372)
(-0.0417191 -0.309482 0.000384032)
(-0.00679624 -0.0497035 -5.00978e-06)
(0.00147543 0.003961 -3.23211e-06)
(-0.0174033 -0.119587 5.6668e-05)
(-0.0231017 -0.162081 0.000109762)
(0.0970934 0.397027 8.63974e-05)
(0.0840092 0.312358 -0.000148324)
(0.0841684 0.312914 -8.93692e-05)
(0.108557 0.445432 -0.000801385)
(0.165835 0.728514 -0.000320159)
(0.142473 0.65666 -0.000180882)
(0.173154 0.761295 -0.000358926)
(0.182446 0.850915 -0.000205576)
(-0.00256169 1.22039 -0.000177227)
(0.0688337 1.03976 -0.000518631)
(-0.00301663 1.38895 -0.000551044)
(0.0723186 1.09333 -0.000313025)
(-0.0608951 1.48619 -0.000227001)
(1.38885 0.921769 -0.000461131)
(-0.0664 1.62009 -0.00063141)
(0.483616 4.14834 -0.00243548)
(0.0959913 0.377163 -7.29473e-05)
(0.085235 0.334812 -0.000148781)
(0.0714085 0.261663 -5.21128e-05)
(0.0629462 0.230798 -2.15322e-05)
(0.0575628 0.301819 -0.000186502)
(0.185315 0.914781 -0.00132616)
(0.022639 0.126321 -9.33747e-05)
(0.0481491 0.258444 -0.000127522)
(0.76435 4.78255 0.00119347)
(0.359987 2.40495 4.819e-06)
(0.0385537 0.139706 -2.14607e-05)
(0.0335654 0.121728 -6.6801e-06)
(1.26236 0.838688 -0.00281502)
(0.0900635 0.623659 -0.00281248)
(0.246163 0.230902 -0.00103078)
(0.497143 -0.206128 0.000411772)
(0.233133 0.219361 -0.0010582)
(0.516322 -0.214447 0.000163427)
(0.0617073 0.226272 -8.51927e-06)
(0.0286275 0.100654 -1.79333e-06)
(0.0323291 0.117255 5.19833e-07)
(0.284848 0.661781 -3.30092e-05)
(0.275276 0.808117 -0.00012869)
(0.000932733 0.00310509 0.739431)
(0.000378022 0.00164637 0.36542)
(0.000559387 0.000815638 0.385564)
(-0.187249 1.73509 -0.000241925)
(-0.0557199 1.36134 -7.7513e-05)
(1.3822 0.92236 -0.00142893)
(0.0218489 0.020627 1.7699e-05)
(0.356756 -0.146631 0.000134523)
(0.357238 -0.145242 0.000573163)
(0.0238025 0.0224464 1.14965e-05)
(0.000566944 0.00193149 0.552184)
(0.000433995 0.000986346 0.38285)
(0.000398943 0.00108025 0.343706)
(0.000612159 0.00162386 0.367778)
(-0.0900868 -0.725341 0.00317223)
(1.36278 0.90235 -0.00483179)
(1.34942 0.893471 -0.00478325)
(1.32246 0.875581 -0.00468169)
(1.34847 0.892835 -0.00478066)
(0.396375 1.93942 -0.00874191)
(0.174457 0.754484 -0.00346397)
(0.176287 0.762881 -0.00350097)
(0.418032 2.04634 -0.00921289)
(0.269642 1.59338 -0.00712002)
(0.288273 1.70378 -0.00757411)
(-0.0234266 -0.138604 0.000643131)
(-0.0301874 -0.177723 0.000824136)
(-0.0547426 -0.340622 0.00156073)
(-0.0493395 -0.307199 0.00139829)
(-0.0398614 -0.233856 0.001093)
(-0.0327255 -0.192409 0.000893662)
(0.25335 2.1557 -0.00948225)
(0.240433 2.04495 -0.00908232)
(0.0256749 0.0947836 -0.000382204)
(0.0241418 0.0975794 -0.000431946)
(0.0359521 0.146193 -0.000392698)
(0.0337964 0.124999 -0.000529779)
(0.00218621 0.00872208 3.34649e-05)
(0.028468 0.121924 -0.000394882)
(0.0376478 0.162705 -0.000610304)
(0.0230004 0.102491 -0.000316059)
(0.0418036 0.154794 -0.000672091)
(0.0460933 0.18797 -0.000553471)
(0.0360889 0.13353 -0.000570912)
(0.0425748 0.635782 -0.00277297)
(-0.001663 1.02532 -0.00441377)
(-0.00185733 1.1302 -0.00486272)
(0.0468778 0.700311 -0.00305914)
(-0.0546192 1.34927 -0.00576491)
(1.31288 0.8692 -0.00463883)
(-0.0571116 1.41047 -0.00602916)
(-0.0490371 1.21216 -0.0051776)
(-0.0534113 1.31963 -0.00563887)
(1.30996 0.86726 -0.00462839)
(-0.00191223 1.15865 -0.00498404)
(0.0512046 0.766072 -0.0033383)
(-0.00202075 1.21498 -0.00522808)
(0.0481924 0.720435 -0.00311815)
(0.226249 1.33763 -0.00574809)
(0.411381 2.55855 -0.0135073)
(0.236962 1.57868 -0.00703746)
(0.246977 1.45834 -0.00658675)
(0.404617 2.52364 -0.0111681)
(0.377101 2.35116 -0.0106316)
(0.195446 1.29935 -0.0070502)
(-0.0810722 -0.595438 0.00224501)
(-0.102146 -0.822064 0.00378172)
(-0.0661617 -0.439318 0.00200075)
(-0.0560617 -0.349463 0.00163151)
(-0.0794402 -0.532781 0.00233658)
(-0.0523744 -0.327261 0.00156121)
(-0.0229766 -0.128044 0.000636542)
(-0.0435884 -0.256225 0.00123074)
(0.00591549 0.0228575 0.000148956)
(-0.0461673 -0.272605 0.00133375)
(0.230622 1.03634 -0.00496518)
(0.178754 0.772448 -0.00351678)
(0.237083 1.1173 -0.00506045)
(0.176604 0.763382 -0.00348467)
(0.224182 1.0108 -0.00460153)
(0.240866 1.13442 -0.00554523)
(0.36719 1.79484 -0.00828206)
(0.105106 0.410973 -0.0018284)
(0.0888465 0.347315 -0.00157719)
(0.0948061 0.345847 -0.00152846)
(0.0747469 0.272549 -0.00123645)
(0.0862514 0.337201 -0.0015449)
(0.0802672 0.31387 -0.00145388)
(0.0550263 0.19848 -0.000874419)
(0.0421938 0.152102 -0.000690067)
(0.125309 0.290475 -0.00126863)
(0.106514 0.246798 -0.00103808)
(-0.0207172 -0.157042 0.000744277)
(-0.01815 -0.129845 0.000620026)
(0.0809726 0.413922 -0.00215354)
(0.0855515 0.427071 -0.00189421)
(0.12375 0.653397 -0.00354645)
(-0.0193226 -0.191005 0.000809446)
(-0.0199355 -0.181802 0.00084117)
(-0.0172396 -0.189758 0.000555335)
(-0.0213099 -0.295573 0.00128075)
(0.076855 0.367862 -0.00179401)
(0.0814407 0.40661 -0.00179355)
(-0.0038884 -0.0164842 0.000128621)
(0.00636656 0.0246266 4.36515e-06)
(-0.000347561 -0.0021229 8.02035e-05)
(0.0132642 0.0486156 -0.000144385)
(0.0176341 0.647683 -0.00277451)
(-0.00130097 0.846749 -0.00364283)
(0.0268684 0.567014 -0.0025106)
(0.0360663 0.539916 -0.00243096)
(-0.105574 1.0036 -0.0056674)
(-0.0411625 1.0206 -0.0044025)
(1.22647 0.819109 -0.00120698)
(-0.461304 1.5013 -0.00591714)
(-0.0450438 1.11467 -0.0047741)
(-0.141077 1.31297 -0.00551496)
(-0.01169 -0.0611221 0.000335915)
(-0.00845256 -0.0435439 0.000251546)
(-0.0102706 -0.0526476 0.000297653)
(-0.0098438 -0.0516801 0.000289743)
(-0.0247762 -0.136019 0.000543376)
(0.000875488 0.00196117 0.391221)
(0.058381 0.392847 -0.00176149)
(0.0920381 0.63749 -0.0029616)
(0.0604159 0.406246 -0.00187993)
(0.125763 0.459066 -0.00198599)
(0.152638 0.557455 -0.00241361)
(0.0724652 0.261553 -0.00112812)
(0.0613593 0.214677 -0.000934887)
(0.0804796 0.28208 -0.00140407)
(0.0884478 0.319436 -0.00139471)
(0.44786 -0.187155 -0.00239606)
(0.210071 0.192922 -2.49075e-05)
(0.256789 0.238854 -0.000869343)
(0.521113 -0.217399 -0.00065811)
(0.222993 0.966766 -0.00430927)
(0.579204 2.83871 -0.0123565)
(0.230023 0.997311 -0.0043658)
(0.552239 2.70643 -0.011886)
(-0.0649278 -0.525284 0.000773465)
(-0.000413893 -0.00582799 1.23805e-05)
(-0.000122896 -0.00403039 7.19614e-06)
(0.194911 0.845519 -0.00121586)
(0.656183 3.21861 -0.00572362)
(0.230308 0.999124 -0.00175186)
(-0.0611108 -0.444346 0.00197782)
(0.178259 0.78413 -0.000663443)
(0.145168 0.67018 -0.000652035)
(0.178503 0.785259 -0.000765307)
(0.145033 0.669488 -0.000571112)
(0.0698103 0.255756 -0.000238909)
(0.0714879 0.261957 -0.000204233)
(-0.0323403 -0.237388 0.00022319)
(0.164667 0.815254 -0.000791146)
(0.0649895 0.341903 -0.00033104)
(0.0369603 0.133906 -0.000129322)
(0.0418199 0.151563 -0.000121068)
(1.39044 0.921667 -0.000401688)
(0.0276111 0.0259475 -2.28084e-07)
(0.347037 -0.144035 1.06148e-05)
(0.0290711 0.0273149 -3.69278e-06)
(0.345796 -0.143456 3.50781e-06)
(-0.0205109 -0.129638 0.000567611)
(-0.022942 -0.144614 0.000639102)
(-0.0395173 -0.246699 0.00111504)
(-0.0950718 -0.7651 0.00337135)
(-0.0344968 -0.215782 0.000971169)
(0.182953 0.792419 -0.00362028)
(0.194754 0.844273 -0.00384131)
(0.10473 0.458497 -0.00199673)
(0.0787867 0.361774 -0.0015703)
(0.108269 0.474105 -0.00206786)
(0.0754348 0.34625 -0.00149873)
(0.045125 0.20586 -0.000844787)
(0.0703785 0.307001 -0.00128723)
(0.0773144 0.337602 -0.00143296)
(0.0510342 0.233273 -0.000976387)
(0.057455 0.210186 -0.00100853)
(0.0559076 0.20439 -0.000980775)
(0.0613311 0.223679 -0.00104846)
(0.0575466 0.209972 -0.000995449)
(0.0151315 0.0775496 -0.000314267)
(0.0704388 0.345766 -0.00148042)
(-0.0686206 -0.498598 0.00224512)
(0.027087 0.130095 -0.000477083)
(-0.00606851 -0.034737 0.000208608)
(0.0342677 0.165921 -0.000649792)
(0.0311752 0.112792 -0.000547115)
(0.02984 0.107879 -0.000523445)
(0.0330506 0.119156 -0.000561067)
(0.0305104 0.110049 -0.000525664)
(1.32475 0.877073 -0.00468641)
(1.29269 0.855856 -0.00449447)
(0.126858 0.119498 -0.000611328)
(0.359972 -0.149457 0.000403117)
(0.370069 -0.153649 0.000416208)
(0.115041 0.108356 -0.000558126)
(0.475643 -0.19724 0.00048218)
(0.216927 0.20431 -0.00101067)
(0.202836 0.191103 -0.000952126)
(0.455653 -0.189056 0.000477334)
(0.000144465 -0.00812338 1.55912e-05)
(0.000107119 -0.0108168 2.77952e-05)
(-0.0516325 -0.507917 0.00129917)
(-6.62492e-05 -0.0234947 7.3166e-05)
(-4.30545e-05 -0.0218018 5.56909e-05)
(-0.0669616 -0.541237 0.00139294)
(-0.0543566 -0.534197 0.00189608)
(-0.000181214 -0.0319181 0.000125256)
(-0.000116016 -0.0271262 9.80022e-05)
(-0.0718547 -0.580101 0.0020437)
(-0.0723767 -0.584256 0.00208506)
(-1.47975e-06 -0.0186895 8.3808e-05)
(-0.058052 -0.569989 0.00233775)
(-0.000265641 -0.0380635 0.000157938)
(-0.0800731 -0.645517 0.00266164)
(1.38099 0.914546 -0.00479141)
(1.37861 0.912941 -0.00482386)
(1.37575 0.91101 -0.00484808)
(1.38041 0.914128 -0.00483444)
(0.200659 0.87018 -0.00388997)
(0.522508 2.56084 -0.0113485)
(0.542106 2.65686 -0.0116886)
(0.188665 0.818126 -0.00367905)
(0.178391 0.772243 -0.00353845)
(0.23519 1.06138 -0.00482534)
(0.266096 1.25534 -0.00565385)
(0.439592 2.15246 -0.00965967)
(0.179873 0.778789 -0.00356451)
(0.24254 1.09495 -0.00496211)
(0.255478 1.2049 -0.00544385)
(0.432106 2.1156 -0.00951097)
(1.39135 0.922226 -0.00213201)
(1.38944 0.920987 -0.00169556)
(1.38838 0.920295 -0.00115536)
(1.38825 0.920209 -0.00162721)
(0.490027 2.9049 -0.00308495)
(0.519478 3.07957 -0.00425341)
(0.000138337 -0.00243558 3.62627e-06)
(-0.0648148 -0.524422 0.000714904)
(-2.62068e-05 -0.00343394 5.84308e-06)
(0.0228091 0.12914 -0.000232255)
(0.0231173 0.13094 -0.00019669)
(0.023342 0.132246 -0.000141342)
(0.0232135 0.131503 -0.000183621)
(0.225699 0.979419 -0.00103341)
(0.194637 0.844428 -0.00113755)
(0.611405 2.99901 -0.00405377)
(-0.0550639 -0.365941 0.00163974)
(-0.0433862 -0.27053 0.0012254)
(-0.0646854 -0.470116 0.00210102)
(-0.045419 -0.28305 0.00128381)
(-0.059774 -0.396936 0.00178613)
(0.43815 3.75228 -0.00310264)
(0.458278 3.92338 -0.00273536)
(0.0839662 0.312203 -0.000169658)
(0.108624 0.445737 0.000321147)
(0.108717 0.446147 -0.000912264)
(0.0838645 0.311852 -0.000229842)
(0.14152 0.652566 -0.000438318)
(0.176808 0.777556 -0.000465504)
(0.177913 0.782543 -0.000566674)
(0.144554 0.667097 -0.000489364)
(0.108682 0.446008 0.000207211)
(0.0837124 0.311315 -0.000310491)
(0.108618 0.445762 -0.00102415)
(0.0838098 0.311658 -0.000252398)
(0.0687461 1.03838 -0.000539715)
(-0.00308979 1.41779 -0.000657139)
(-0.0031583 1.43018 -0.000983685)
(0.0687806 1.03914 -0.0007436)
(-0.0669794 1.63205 -0.00120475)
(1.39039 0.921612 -0.000840129)
(-0.0628538 1.53144 -0.00143364)
(-0.0673259 1.64225 -0.000752756)
(-0.0677373 1.65087 -0.00110287)
(1.39106 0.922038 -0.000740971)
(-0.00311748 1.40535 -0.00105516)
(0.075214 1.13875 -0.00108378)
(-0.00286664 1.28483 -0.00123074)
(0.0695742 1.0529 -0.000793377)
(0.305702 1.38325 -0.000737484)
(0.236837 1.0281 -0.000686229)
(0.63789 3.13011 -0.0025232)
(0.366 1.73046 -0.00163828)
(0.335642 1.58724 -0.000838091)
(0.63112 3.09682 -0.00214479)
(0.238672 1.03601 -0.000835514)
(0.325631 1.4731 -0.00137653)
(0.078704 0.309156 -0.000170795)
(0.0685651 0.269282 -0.000192713)
(0.0752308 0.275689 -6.57573e-05)
(0.0696168 0.255156 -0.000179236)
(0.068697 0.269755 -0.0002089)
(0.663437 4.15061 -0.00279084)
(0.434596 2.57678 -0.00184563)
(0.683003 4.27481 -0.00304442)
(0.428027 2.86328 -0.00239468)
(0.416599 2.78609 -0.00195813)
(0.443243 2.62835 -0.00216162)
(-0.0305051 -0.224632 0.000141203)
(-0.0187218 -0.127017 0.000121404)
(0.000332664 -0.00135347 2.01628e-06)
(-0.0179788 -0.122748 7.75248e-05)
(0.000380046 -0.00124423 1.86781e-06)
(0.0642185 0.337296 -0.000205031)
(0.162225 0.802269 -0.000488265)
(0.164633 0.814735 -0.000595115)
(0.0493843 0.266204 -0.000257096)
(0.0234994 0.133056 -0.000112316)
(0.0493598 0.265542 -0.000163942)
(0.0235414 0.13313 -9.64412e-05)
(0.0434817 0.157584 -2.86123e-05)
(0.0412762 0.149634 -0.000107528)
(0.0652783 0.238031 -0.00110393)
(0.0677343 0.24697 -0.00113808)
(0.0316144 0.110494 -0.000518343)
(0.0357449 0.12885 -0.000598989)
(0.0374922 0.131042 -0.000599383)
(0.0374288 0.134915 -0.00062252)
(0.275193 0.808042 -0.000356429)
(0.275275 0.80815 -0.000212733)
(0.285617 0.663725 -0.000231149)
(0.285492 0.663407 -0.000190262)
(-0.191996 1.77868 -0.00031407)
(-0.063403 1.54828 -0.000399314)
(1.38966 0.921508 -0.000396852)
(-0.863239 2.80688 -0.000935708)
(-0.0652349 1.59237 -0.00051914)
(-0.202366 1.87307 -0.000699741)
(0.0664162 0.243435 -3.59935e-05)
(0.0642088 0.235422 -2.80492e-05)
(0.0354735 0.128591 -1.56016e-05)
(0.0333811 0.11729 -1.39309e-05)
(0.0294084 0.103404 -2.91502e-06)
(0.0344354 0.124877 -1.17436e-05)
(0.410175 2.42742 -0.0106124)
(0.383152 2.26723 -0.00999352)
(0.000567546 0.000244068 1.20476e-05)
(-0.00217007 -0.0156023 8.25823e-05)
(-0.0272313 -0.171031 0.000763308)
(-0.0240395 -0.151375 0.000670585)
(-0.00699815 -0.0435434 0.000208613)
(-0.00341443 -0.0228058 0.000114635)
(1.36147 0.901489 -0.00482665)
(1.37053 0.907512 -0.00485022)
(1.37676 0.911672 -0.00485352)
(1.37127 0.908013 -0.00485083)
(-0.020995 -0.124534 0.000578634)
(-0.0152396 -0.0912351 0.000425588)
(0.348637 2.06192 -0.00910122)
(0.373177 2.20794 -0.00974237)
(-0.0935876 -0.753263 0.00331339)
(-0.0286715 -0.179901 0.000804291)
(-0.0327489 -0.205017 0.000921406)
(-0.00863976 -0.053043 0.000251431)
(-0.0132242 -0.0795733 0.000372484)
(0.198065 0.858718 -0.00388627)
(0.512667 2.51252 -0.0111726)
(0.18974 0.82272 -0.00370463)
(0.477582 2.33981 -0.0104592)
(0.282791 2.40713 -0.0106029)
(0.291076 2.47805 -0.0109241)
(0.0666093 0.272347 -0.000841982)
(0.0539577 0.200029 -0.000883665)
(0.0567651 0.210477 -0.000931677)
(0.0627041 0.256286 -0.00144419)
(0.0997836 0.436687 -0.00189631)
(0.0669229 0.306846 -0.00131843)
(0.0954053 0.417385 -0.00180625)
(0.0709569 0.325516 -0.00140494)
(0.0600343 0.222646 -0.000987291)
(0.0576989 0.213953 -0.000948019)
(0.0713728 0.291942 -0.000906706)
(-0.00234062 1.37632 -0.00591943)
(0.0574606 0.860217 -0.00374332)
(0.0587547 0.879711 -0.00382636)
(-0.00228608 1.34967 -0.00580565)
(-0.0643274 1.58739 -0.00678157)
(1.35945 0.900128 -0.00481969)
(-0.0650538 1.60506 -0.00685523)
(-0.00235972 1.3855 -0.00595631)
(0.0602235 0.901874 -0.00391869)
(-0.00239237 1.39868 -0.00601068)
(0.0591825 0.886161 -0.00385351)
(-0.0638969 1.57686 -0.00673919)
(1.35665 0.898273 -0.00480978)
(-0.0627086 1.54776 -0.00661534)
(0.316813 2.69794 -0.0118434)
(0.31096 2.64787 -0.011633)
(0.0436124 0.161528 -0.000704001)
(0.0479129 0.177533 -0.000778961)
(0.0562193 0.229616 -0.00128578)
(0.0527542 0.19555 -0.000862915)
(0.0608944 0.248844 -0.000763368)
(0.0493616 0.182923 -0.000803893)
(0.0839959 0.367067 -0.00157245)
(0.061543 0.281943 -0.00120384)
(0.089212 0.390076 -0.00168024)
(0.0568179 0.260063 -0.00110159)
(-0.0577884 1.42702 -0.00610175)
(-0.0600498 1.4826 -0.0063368)
(1.33621 0.884695 -0.004733)
(0.0520379 0.778644 -0.00339381)
(-0.00205496 1.23092 -0.00529841)
(-0.002159 1.2863 -0.00553378)
(0.0543686 0.813668 -0.00354444)
(-0.00219088 1.30258 -0.00560386)
(0.0569048 0.851825 -0.00370837)
(0.0551647 0.825644 -0.00359481)
(-0.00226131 1.33818 -0.00575836)
(-0.0607267 1.49921 -0.00640796)
(1.34164 0.888298 -0.0047519)
(-0.0622275 1.53601 -0.00656743)
(0.0749699 0.293677 -0.00137702)
(0.0751414 0.294216 -0.00138021)
(0.055278 0.201906 -0.000967073)
(0.0555329 0.202975 -0.000974053)
(0.0753685 0.295416 -0.0013835)
(0.239991 1.13128 -0.00512813)
(0.403309 1.97371 -0.00892261)
(0.225311 1.01611 -0.00463014)
(0.174432 0.754547 -0.00347179)
(0.175448 0.759108 -0.00348843)
(0.232332 1.04833 -0.0047699)
(0.411221 2.01278 -0.00906513)
(0.251379 1.18545 -0.0053622)
(0.0764591 0.299138 -0.00139835)
(0.0760807 0.297706 -0.0013933)
(0.075135 0.294144 -0.00137964)
(0.0553198 0.202012 -0.000966731)
(0.0567673 0.207168 -0.000985074)
(0.262978 1.75204 -0.00777281)
(0.419302 2.61565 -0.0116308)
(0.275795 1.62979 -0.00726051)
(0.282329 1.66854 -0.00742983)
(0.449704 2.80577 -0.0124456)
(0.440022 2.74531 -0.0121887)
(0.26964 1.79657 -0.00795466)
(-0.000665668 -0.00635628 5.88724e-05)
(-0.0255093 -0.150656 0.000698511)
(0.0541898 0.265011 -0.00111105)
(0.00711925 0.0351661 -0.00011996)
(-0.0279468 -0.16476 0.000763753)
(-0.00825921 -0.0476458 0.000249)
(-0.0653783 -0.433953 0.00196917)
(-0.0530009 -0.329798 0.00150743)
(-0.0658458 -0.478473 0.00214265)
(-0.0512183 -0.318781 0.00145246)
(-0.0613669 -0.407426 0.00183726)
(0.460873 2.87565 -0.0127445)
(0.470072 2.93322 -0.0129868)
(0.292952 1.95244 -0.00861548)
(0.287052 1.91299 -0.0084487)
(-0.0201081 -0.112229 0.000554664)
(-0.0374729 -0.219934 0.00102389)
(0.0475354 0.231935 -0.000958033)
(0.00381775 0.0176993 -3.94258e-05)
(0.0413291 0.201068 -0.000815731)
(-0.0350693 -0.205986 0.000956637)
(-0.0112768 -0.0640563 0.000325136)
(0.0291099 0.105125 -0.000508892)
(0.0295044 0.106637 -0.000517452)
(0.0291125 0.105106 -0.000508148)
(0.029991 0.108199 -0.000518788)
(0.121157 0.354752 -0.00154513)
(0.147226 0.431298 -0.00191351)
(0.195138 0.452668 -0.00206741)
(0.189855 0.440401 -0.00200973)
(0.162382 0.376622 -0.00170666)
(0.170582 0.395667 -0.00180076)
(0.154248 0.451923 -0.00201196)
(-0.607486 1.97853 -0.00807634)
(1.31963 0.873672 -0.00466328)
(-0.0563826 1.39258 -0.0059521)
(-0.169131 1.57311 -0.00664909)
(-0.579941 1.88899 -0.00777205)
(-0.509827 1.66002 -0.00667953)
(-0.528045 1.71969 -0.00702581)
(-0.146334 1.36182 -0.00575226)
(-0.0505489 1.24932 -0.00533416)
(1.30295 0.862593 -0.00457859)
(-0.562667 1.83287 -0.00748717)
(0.0868688 0.316817 -0.00140814)
(0.0799638 0.291613 -0.00131264)
(0.140023 0.131912 -0.00067054)
(0.398106 -0.165291 0.000451265)
(0.383132 -0.159072 0.000432871)
(0.153722 0.14483 -0.000730157)
(0.0536388 0.187608 -0.00082402)
(0.0500917 0.180627 -0.000800714)
(0.0455664 0.164284 -0.000738516)
(0.0402309 0.140622 -0.000636836)
(0.184381 0.173732 -0.000868596)
(0.415678 -0.172577 0.000462055)
(0.433694 -0.18002 0.000474406)
(0.169336 0.159553 -0.000798564)
(0.645167 3.16438 -0.00598027)
(0.246323 1.06848 -0.00198312)
(0.243583 1.05644 -0.00231103)
(0.648749 3.18111 -0.00691138)
(0.218415 0.947158 -0.00316064)
(0.615043 3.0151 -0.00954007)
(0.237694 1.03065 -0.00327583)
(0.625735 3.06764 -0.0101691)
(0.220934 0.958033 -0.00389879)
(0.605277 2.96691 -0.011698)
(0.243806 1.0572 -0.00419497)
(0.595878 2.92094 -0.0117798)
(-0.0651428 -0.526935 0.000884411)
(-0.0328801 -0.241093 0.000431941)
(-0.0470688 -0.343125 0.00147301)
(-0.0597741 -0.434709 0.00193209)
(-0.0978506 -0.787258 0.0034795)
(-0.0521353 -0.512754 0.00146313)
(-0.0052669 -0.159175 0.000484652)
(-0.00521954 -0.157838 0.000441132)
(8.44355e-05 -0.0124602 4.00616e-05)
(0.000105786 -0.0109125 2.88497e-05)
(-0.000591369 -0.00692306 1.50854e-05)
(-0.0659054 -0.532909 0.00114616)
(-0.00101432 -0.00953052 2.29558e-05)