/*--------------------------------*- C++ -*----------------------------------*\
| =========                 |                                                 |
| \\      /  F ield         | OpenFOAM: The Open Source CFD Toolbox           |
|  \\    /   O peration     | Version:  2306                                  |
|   \\  /    A nd           | Website:  www.openfoam.com                      |
|    \\/     M anipulation  |                                                 |
\*---------------------------------------------------------------------------*/
FoamFile
{
    version     2.0;
    format      ascii;
    arch        "LSB;label=32;scalar=64";
    class       volScalarField;
    location    "2";
    object      p;
}
// * * * * * * * * * * * * * * * * * * * * * * * * * * * * * * * * * * * * * //

dimensions      [0 2 -2 0 0 0 0];

internalField   nonuniform List<scalar> 
111542
(
61.8092
63.1221
66.2649
71.4025
78.5982
88.0468
99.8922
114.153
130.334
147.017
161.665
170.295
168.881
156.243
135.439
112.207
90.5787
72.0815
56.8235
44.5872
34.9341
27.5196
21.9549
17.7371
14.5365
12.0809
10.0955
8.5509
7.3993
6.51437
5.81381
5.24186
4.81075
4.4494
4.10503
3.73421
3.28173
2.74037
2.00602
0.981849
60.6281
61.898
65.0042
70.0755
77.2562
86.8458
99.2008
114.562
132.762
152.739
171.828
184.51
183.197
166.585
140.44
113.423
89.7941
70.2779
54.5971
42.298
32.8593
25.7378
20.4148
16.5093
13.5809
11.3033
9.51051
8.1235
7.05702
6.22034
5.55102
5.00996
4.57271
4.19866
3.84689
3.47807
3.04692
2.50623
1.78297
0.816846
58.2932
59.4919
62.4488
67.3284
74.3855
84.1129
97.2079
114.47
136.564
163.348
191.525
212.547
212.275
186.583
150.08
116.564
89.1368
67.5705
51.0386
38.5815
29.3673
22.8468
18.1823
14.7717
11.9839
9.7055
7.97946
6.71956
5.7871
5.08132
4.54256
4.12962
3.80742
3.54248
3.29869
3.03838
2.71528
2.27089
1.62813
0.703906
54.8731
55.9406
58.5952
63.0491
69.6702
79.1697
92.6836
111.904
139.248
177.992
212.899
255.302
260.797
219.805
167.228
126.209
92.9738
67.9725
49.825
36.6951
23.3233
17.1748
14.6961
13.2597
11.2648
9.20099
7.55271
6.31064
5.34109
4.56868
3.95915
3.48259
3.10855
2.80576
2.54397
2.28987
1.99629
1.59842
0.997602
0.0667725
50.5004
51.3555
53.5038
57.1757
62.796
71.1963
83.8112
103.06
132.981
177.641
254.386
340.594
364.664
257.07
171.876
122.153
82.4694
56.0965
38.902
27.9301
21.0273
6.63361
5.76508
6.20782
5.49576
4.62887
4.01367
3.55764
3.17355
2.84962
2.58832
2.38143
2.21787
2.08283
1.96395
1.84319
1.68789
1.44103
0.979268
0.00512485
45.3978
45.9529
47.3686
49.8382
53.7281
59.7643
69.2719
84.705
110.838
165.45
259.071
454.158
620.069
248.674
174.173
113.337
65.7978
39.9624
25.0095
16.1702
14.618
12.4612
12.1185
7.80406
4.72285
3.21802
2.39348
1.79047
1.32468
0.991352
0.767626
0.622848
0.53406
0.485628
0.465674
0.461457
0.458612
0.443307
0.420732
0.521141
39.8861
40.0672
40.5646
41.4712
42.9631
45.3772
49.2994
55.7187
66.3378
105.655
181.3
411.753
1951.36
-416.907
199.656
77.1101
30.2999
15.6316
7.82138
-1.69489
-6.43799
15.0744
14.5509
9.12434
5.78329
4.4133
3.73646
3.21587
2.7875
2.46174
2.22022
2.03628
1.89417
1.78372
1.6987
1.63311
1.57252
1.50609
1.41837
1.29934
34.3832
34.1558
33.6523
32.8367
31.6399
29.8944
27.2046
22.6314
13.7868
15.957
-1.29295
-164.276
-1012.13
-1048.75
-313.664
-102.506
-47.1346
-26.3241
-16.8059
-10.4345
-3.87998
-7.94952
-6.01414
-4.37159
-3.48199
-2.58393
-1.72202
-1.04139
-0.526041
-0.114291
0.229029
0.518471
0.763564
0.970661
1.14304
1.27826
1.3594
1.35208
1.18331
0.713835
29.2878
28.7138
27.2701
24.8388
21.1638
15.6994
7.4375
-5.50401
-26.7491
-50.0347
-123.907
-269.18
-480.371
-508.616
-321.92
-176.303
-101.166
-61.4614
-39.1691
-25.0657
-15.0698
-8.27509
-4.22029
-1.38907
0.299321
1.34384
2.07246
2.57468
2.8965
3.09252
3.20611
3.26338
3.27891
3.25988
3.20605
3.10976
2.94565
2.66219
2.15914
1.23688
25.0866
24.1934
21.9792
18.2556
12.6587
4.4783
-7.47276
-25.1495
-51.8273
-93.1238
-150.992
-223.892
-289.447
-297.488
-239.492
-165.906
-110.182
-74.3715
-51.1555
-35.0921
-23.7289
-16.1807
-11.1991
-7.69604
-5.22481
-3.46785
-2.15681
-1.14788
-0.368964
0.235106
0.710427
1.08917
1.38981
1.62077
1.77987
1.8586
1.83124
1.65196
1.2562
0.591708
22.0806
20.9669
18.2248
13.6314
6.78803
-3.01136
-16.8502
-36.2015
-62.9193
-98.8686
-144.038
-193.244
-231.71
-238.627
-207.856
-158.62
-113.843
-81.1516
-58.2259
-41.5647
-29.2153
-20.2064
-13.6543
-8.87989
-5.40632
-2.88708
-1.04823
0.302575
1.2912
2.00755
2.52074
2.88135
3.12273
3.26285
3.29953
3.24172
3.06372
2.71627
2.12414
1.15531
20.5152
19.3024
16.2768
11.2723
3.81474
-6.70558
-21.284
-41.0432
-67.1258
-99.8841
-137.83
-175.576
-203.166
-209.019
-188.97
-152.611
-114.807
-84.1346
-61.381
-44.4484
-31.6948
-22.1973
-15.2634
-10.2499
-6.6686
-4.09249
-2.22224
-0.851894
0.159053
0.907573
1.46312
1.87443
2.17436
2.38495
2.45014
2.44298
2.31918
2.02558
1.50982
0.71884
61.337
62.5982
65.6774
70.6672
77.6432
86.7886
98.2749
112.072
127.682
143.776
157.893
166.143
164.553
152.133
131.833
109.185
88.1609
70.1821
55.3653
43.4649
34.1075
26.8903
21.4173
17.2988
14.1657
11.721
9.78275
8.27658
7.13133
6.2554
5.57582
5.0432
4.62628
4.27978
3.95984
3.62482
3.22899
2.72284
2.02482
1.03134
60.1637
61.3947
64.4162
69.3396
76.3019
85.5905
97.551
112.406
129.994
149.308
167.759
180.098
178.442
162.105
136.607
110.328
87.3705
68.415
53.1928
41.2516
32.0754
25.1046
19.8674
16.0403
13.1754
10.9368
9.17641
7.81467
6.76663
5.95004
5.30552
4.79303
4.38103
4.03335
3.71357
3.38326
2.99889
2.50504
1.82833
0.887356
57.8493
59.0099
61.8783
66.6099
73.4461
82.8605
95.5271
112.222
133.6
159.546
186.842
207.081
206.853
181.658
146.033
113.437
86.7717
65.8102
49.7544
37.6561
28.676
22.2363
17.6016
14.2158
11.4635
9.23184
7.55704
6.34863
5.46528
4.80531
4.30928
3.93572
3.64966
3.41836
3.2099
2.98895
2.71274
2.32042
1.72498
0.804554
54.4613
55.4913
58.0603
62.3706
68.7743
77.958
91.0249
109.628
136.146
173.834
209.187
250.762
256.004
215.313
163.784
123.639
91.0473
66.5344
48.7552
35.8772
22.3097
16.132
13.9147
12.604
10.6224
8.5761
6.97467
5.7951
4.89193
4.18499
3.63748
3.21719
2.89421
2.63869
2.42383
2.22021
1.98687
1.65804
1.12166
0.187028
50.133
50.9524
53.0238
56.5669
61.9899
70.0992
82.2948
100.952
130.062
174.704
250.379
335.442
358.706
251.57
168.321
119.853
80.7904
54.8374
37.8991
26.9387
19.5299
3.99896
3.77785
4.81748
4.41723
3.7488
3.29474
2.97061
2.6896
2.44489
2.24374
2.08142
1.95194
1.84555
1.7546
1.6695
1.56746
1.39508
1.0182
0.0649884
45.0865
45.6093
46.9631
49.3305
53.0647
58.8735
68.058
83.0443
108.585
163.092
256.369
450.038
614.598
242.95
170.653
111.381
64.0829
38.599
23.881
15.0057
10.8469
11.4458
10.8777
6.60218
3.70995
2.40472
1.75474
1.29694
0.944257
0.69239
0.523538
0.413477
0.347698
0.316498
0.315395
0.341582
0.393244
0.471282
0.590733
0.844609
39.6279
39.7946
40.251
41.0906
42.4869
44.7716
48.5292
54.7641
65.2378
104.532
180.214
411.074
1941.22
203.861
78.7856
29.0028
14.2224
7.07891
-2.40922
-10.2723
15.5618
14.7469
8.91759
5.46925
4.07117
3.34196
2.75342
2.25774
1.86982
1.57372
1.34564
1.17307
1.0474
0.965416
0.925544
0.925781
0.969382
1.07296
1.31127
34.18
33.9566
33.4351
32.5931
31.3689
29.6049
26.9288
22.4586
13.9263
16.2873
-0.224079
-159.823
-990.568
-1035.37
-308.981
-100.473
-45.8389
-25.7214
-16.6635
-10.3681
-2.52358
-7.20492
-5.76973
-4.51655
-3.71102
-2.80955
-1.95843
-1.29671
-0.796156
-0.395708
-0.0621384
0.219787
0.461505
0.670549
0.854105
1.01509
1.14545
1.21876
1.16665
0.818208
29.1625
28.5791
27.1371
24.7205
21.0814
15.6953
7.59432
-5.03489
-25.7028
-48.7645
-121.004
-263.832
-471.925
-498.336
-316.346
-172.899
-98.9966
-60.2523
-38.6017
-24.8275
-14.7585
-8.2412
-4.47479
-1.78896
-0.0958046
0.973329
1.70108
2.18599
2.48498
2.65639
2.74597
2.78253
2.78299
2.75665
2.70631
2.62813
2.50165
2.28031
1.86899
1.07586
25.0034
24.1126
21.9224
18.2433
12.7271
4.6941
-7.00262
-24.2511
-50.2281
-90.4211
-146.754
-217.819
-282.014
-289.69
-233.03
-161.341
-107.251
-72.6415
-50.2366
-34.7038
-23.6707
-16.2929
-11.4272
-7.97606
-5.52255
-3.77311
-2.46716
-1.46286
-0.689308
-0.0917863
0.376565
0.748896
1.04506
1.2749
1.43952
1.5325
1.53166
1.39455
1.06044
0.480609
22.0329
20.9314
18.2198
13.6877
6.95753
-2.65739
-16.1991
-35.0901
-61.1188
-96.1005
-140.027
-187.865
-225.313
-232.138
-202.139
-154.307
-110.882
-79.2604
-57.1017
-40.9773
-28.9977
-20.2299
-13.8186
-9.13702
-5.72229
-3.23637
-1.41486
-0.0742388
0.90595
1.61369
2.11817
2.47053
2.70493
2.84125
2.88554
2.83839
2.67959
2.36613
1.83052
0.962827
20.4886
19.2811
16.3052
11.3496
4.03454
-6.29174
-20.5595
-39.8627
-65.2586
-97.1581
-134.069
-170.762
-197.592
-203.365
-183.928
-148.522
-111.816
-82.1366
-60.1304
-43.7418
-31.3688
-22.1325
-15.3696
-10.4797
-6.95566
-4.408
-2.55337
-1.19129
-0.185087
0.559767
1.11157
1.51858
1.81234
2.00894
2.10472
2.10789
1.99601
1.72828
1.26017
0.563402
60.4067
61.5923
64.5013
69.2011
75.7555
84.3278
95.07
107.929
122.426
137.325
150.296
157.72
155.919
143.953
124.627
103.168
83.3022
66.332
52.3609
41.1434
32.3197
25.475
20.2389
16.292
13.296
10.9609
9.11842
7.68066
6.57463
5.72426
5.0643
4.54698
4.13549
3.79518
3.4904
3.18321
2.83129
2.38281
1.77038
0.910297
59.2533
60.4092
63.2557
67.8868
74.4209
83.1171
94.2874
108.125
124.472
142.385
159.457
170.656
168.883
153.222
129.012
104.18
82.5195
64.6437
50.3057
39.0715
30.4364
23.7912
18.7597
15.1068
12.3952
10.2682
8.57661
7.24914
6.2131
5.39856
4.75237
4.23682
3.8208
3.47414
3.16631
2.86345
2.52568
2.10068
1.52297
0.729236
56.9799
58.0652
60.7579
65.1967
71.5965
80.3909
92.2014
107.749
127.656
151.841
177.307
196.239
195.597
171.482
137.765
107.042
81.887
62.1259
47.0326
35.7187
27.4276
21.2601
16.6901
13.4048
10.8047
8.69759
7.08744
5.89874
5.01088
4.3351
3.81913
3.42595
3.12363
2.88476
2.68264
2.48857
2.26505
1.95638
1.47675
0.700799
53.6563
54.6127
57.0127
61.0394
67.0126
75.5676
87.7341
105.07
129.849
165.226
200.032
239.655
244.305
204.81
155.64
117.628
86.543
63.1694
46.2693
34.084
21.1814
15.6337
13.4273
11.9774
9.88659
7.75185
6.06011
4.7924
3.81333
3.04763
2.45717
2.00916
1.6737
1.42354
1.23677
1.09097
0.95434
0.770791
0.437299
-0.216184
49.4177
50.1666
52.0865
55.375
60.4056
67.9311
79.2715
96.6869
124.029
167.522
240.294
322.333
344.241
239.112
160.156
114.74
77.078
51.9961
35.6768
25.1669
18.4913
3.95351
4.11112
5.10168
4.44472
3.47645
2.76248
2.22746
1.77833
1.40414
1.10681
0.879023
0.714185
0.601928
0.538625
0.521105
0.541568
0.565164
0.474469
-0.130934
44.4926
44.944
46.1753
48.3404
51.7634
57.1111
65.6247
79.6414
103.815
157.099
248.514
438.418
598.434
227.819
163.185
109.429
62.7175
37.0777
22.3478
13.4095
11.1359
8.38382
7.73728
3.43414
0.380395
-1.12933
-1.91049
-2.4175
-2.76729
-2.98747
-3.10632
-3.15555
-3.14101
-3.07349
-2.95155
-2.76525
-2.49161
-2.08782
-1.457
-0.302499
39.1221
39.2696
39.647
40.3548
41.5589
43.5767
46.9765
52.7744
62.8141
101.558
176.86
407.4
1921.62
189.229
78.8401
29.8227
14.1895
6.0793
-2.97526
-8.31486
12.2215
10.9955
5.14365
1.88195
0.669731
0.102532
-0.32666
-0.669878
-0.922545
-1.1011
-1.22454
-1.3015
-1.32689
-1.29476
-1.19073
-0.989062
-0.649073
-0.0899682
0.834535
33.8131
33.5778
33.0221
32.131
30.8512
29.041
26.3719
22.0664
14.0954
16.942
2.40781
-150.196
-966.811
-1008.79
-299.362
-95.6563
-43.7122
-25.2064
-16.9986
-11.0647
-4.28958
-8.34349
-7.5826
-6.66084
-5.76005
-4.68713
-3.69846
-2.91959
-2.31493
-1.82784
-1.42307
-1.08041
-0.784894
-0.522413
-0.273065
-0.0225765
0.241163
0.513157
0.743807
0.73422
28.9196
28.3355
26.9026
24.5158
20.9468
15.7114
7.91868
-4.10422
-23.6181
-45.6439
-114.134
-250.966
-452.058
-478.246
-302.449
-164.343
-94.0852
-57.7263
-37.5264
-24.5957
-15.0883
-9.3489
-5.87878
-3.28187
-1.58121
-0.485212
0.280177
0.816133
1.17383
1.40411
1.55117
1.64385
1.70088
1.73381
1.75419
1.76534
1.75831
1.69881
1.49733
0.939911
24.8591
23.9817
21.8379
18.2495
12.8974
5.15356
-6.04341
-22.4453
-47.0171
-84.9261
-138.048
-205.285
-266.427
-273.955
-220.266
-152.466
-101.642
-69.3289
-48.4378
-33.9219
-23.6233
-16.8373
-12.0785
-8.65746
-6.27677
-4.58734
-3.29806
-2.27835
-1.47384
-0.839419
-0.331624
0.0807209
0.418165
0.689688
0.90329
1.05669
1.13456
1.10101
0.894278
0.43599
21.9613
20.883
18.2409
13.8376
7.33086
-1.91698
-14.8684
-32.8402
-57.4905
-90.5158
-131.933
-177.08
-212.574
-219.193
-190.947
-145.861
-105.074
-75.486
-54.7654
-39.6584
-28.4117
-20.1546
-14.0073
-9.49406
-6.21984
-3.8376
-2.0764
-0.76304
0.210465
0.924331
1.44361
1.817
2.07801
2.24656
2.33362
2.33862
2.24609
2.01954
1.59419
0.851514
20.4484
19.2749
16.3798
11.5683
4.50473
-5.42243
-19.0663
-37.4377
-61.502
-91.6423
-126.453
-161.05
-186.399
-191.961
-173.747
-140.461
-105.991
-78.1828
-57.5679
-42.1902
-30.5511
-21.8315
-15.3982
-10.7058
-7.30541
-4.8445
-3.04791
-1.71744
-0.72269
0.0243705
0.587252
1.01157
1.32755
1.55134
1.6887
1.73587
1.67704
1.47961
1.10001
0.49513
59.069
60.1488
62.8058
67.0904
73.043
80.7916
90.45
101.942
114.807
127.919
139.172
145.34
143.256
132.011
114.189
94.5274
76.3597
60.8499
48.0946
37.8605
29.7977
23.4838
18.5589
14.7757
11.8945
9.67121
7.93575
6.58866
5.55486
4.76309
4.15311
3.68035
3.31027
3.01229
2.75599
2.50945
2.23648
1.89192
1.41845
0.747378
57.9448
58.9938
61.5869
65.7981
71.717
79.5572
89.5752
101.916
116.409
132.193
147.129
156.54
154.589
140.058
117.894
95.2604
75.5114
59.2136
46.1663
35.9647
28.1149
21.904
17.054
13.4961
10.8901
8.87897
7.29044
6.04781
5.0856
4.33844
3.7546
3.29716
2.93692
2.64688
2.40145
2.17331
1.92947
1.62516
1.20173
0.598047
55.731
56.7094
59.1497
63.1665
68.936
76.8281
87.377
101.204
118.846
140.225
162.662
179.368
178.142
155.969
125.397
97.5413
74.6433
56.6827
43.0401
32.9126
25.6542
19.6551
14.7563
11.3798
8.9921
7.15747
5.75191
4.70092
3.91241
3.31352
2.85931
2.51855
2.26569
2.07727
1.93522
1.81888
1.70123
1.53533
1.2367
0.64705
52.5003
53.3535
55.5108
59.1275
64.4744
72.1037
82.9189
98.2994
120.282
151.754
184.855
220.88
224.577
187.657
142.696
107.998
79.2656
57.7583
42.3259
31.3155
19.4765
14.0488
10.9217
9.02533
7.15235
5.41856
4.0607
3.04313
2.26248
1.65638
1.19074
0.843825
0.592383
0.41532
0.305527
0.254043
0.248577
0.252641
0.171335
-0.238504
48.3886
49.0448
50.7467
53.6638
58.1179
64.7705
74.7958
90.2195
114.557
155.394
222.408
298.763
318.547
218.757
147.455
105.914
70.2446
46.8349
31.8136
22.17
15.5379
-1.30651
-0.143166
1.82897
1.81041
1.21304
0.69765
0.265364
-0.123815
-0.455414
-0.720314
-0.910656
-1.03705
-1.10458
-1.10399
-1.02334
-0.84398
-0.562786
-0.262553
-0.394772
43.6218
43.9974
45.0538
46.9213
49.881
54.5253
61.9673
74.3383
95.968
146.263
233.381
415.81
567.858
202.879
151.929
103.538
57.2557
32.5879
18.8538
10.6561
4.94951
-2.28564
-0.244115
-1.00607
-2.29199
-3.03971
-3.4507
-3.7672
-4.03662
-4.24726
-4.39528
-4.49921
-4.54523
-4.53485
-4.44929
-4.25361
-3.8846
-3.22779
-2.08183
-0.130155
38.4307
38.5266
38.7881
39.3038
40.2179
41.8122
44.6041
49.5602
58.5115
95.5114
169.17
400.408
1883.41
179.096
83.1946
26.3935
10.4521
3.04184
-6.54251
-16.9451
12.5411
10.3588
4.00806
0.371625
-1.3251
-2.33753
-3.10318
-3.69442
-4.13098
-4.44212
-4.64817
-4.77222
-4.81869
-4.76375
-4.57817
-4.19978
-3.51711
-2.33066
-0.318018
33.306
33.0496
32.4455
31.4818
30.1111
28.2051
25.4839
21.293
13.9247
17.1719
5.57355
-133.005
-909.766
-962.718
-276.685
-86.0138
-40.8239
-25.3318
-18.4562
-13.0421
-4.42938
-7.44024
-7.07639
-6.53972
-5.8638
-5.03381
-4.25629
-3.63222
-3.14687
-2.76197
-2.44902
-2.17694
-1.95229
-1.74793
-1.52847
-1.26405
-0.915818
-0.44359
0.151568
0.640643
28.5913
28.0067
26.5897
24.2442
20.7683
15.7325
8.35133
-2.84478
-20.7185
-40.9673
-103.491
-229.705
-417.974
-443.235
-277.965
-150.56
-86.9414
-54.4032
-36.3468
-24.6904
-16.0133
-11.3334
-7.09651
-3.94697
-2.23015
-1.32234
-0.744728
-0.359352
-0.12279
0.0114838
0.0870624
0.132847
0.161725
0.189498
0.233021
0.303545
0.406435
0.531284
0.612719
0.459466
24.6745
23.8201
21.7429
18.2854
13.1679
5.83271
-4.65859
-19.8531
-42.3766
-76.8316
-124.975
-186.058
-241.927
-249.118
-200.535
-139.247
-93.5619
-64.6017
-45.8523
-32.8069
-23.6167
-17.6738
-12.5927
-8.8721
-6.50704
-4.94179
-3.76048
-2.82113
-2.08071
-1.49856
-1.0324
-0.651121
-0.336484
-0.0758547
0.14385
0.325507
0.463006
0.533268
0.483024
0.230124
21.8766
20.8386
18.2979
14.0834
7.89733
-0.825463
-12.9348
-29.5854
-52.2307
-82.3612
-119.987
-160.964
-193.305
-199.522
-174.089
-133.419
-96.6982
-70.071
-51.3768
-37.7058
-27.5177
-19.999
-14.1474
-9.74092
-6.56842
-4.29784
-2.63532
-1.4028
-0.495869
0.163264
0.638953
0.979957
1.21972
1.37971
1.47446
1.50632
1.46477
1.32242
1.0274
0.497588
20.4213
19.2898
16.5136
11.9201
5.21731
-4.13637
-16.8929
-33.9293
-56.0756
-83.6372
-115.324
-146.752
-169.813
-175.001
-158.675
-128.718
-97.6489
-72.5433
-53.8836
-39.9203
-29.3195
-21.3344
-15.3431
-10.8579
-7.56251
-5.18321
-3.45808
-2.18562
-1.23646
-0.525954
0.00725979
0.408309
0.707607
0.923464
1.06478
1.13017
1.10705
0.970706
0.687567
0.2387
57.4066
58.3568
60.7017
64.4725
69.6804
76.4073
84.7141
94.4877
105.283
116.095
125.118
129.635
127.14
116.869
101.075
83.7792
67.7908
54.112
42.8447
33.7936
26.6583
21.0705
16.6803
13.2426
10.5857
8.53239
6.93543
5.698
4.74904
4.01954
3.45672
3.02042
2.68054
2.41051
2.18442
1.97743
1.76187
1.50218
1.15293
0.645848
56.3191
57.2377
59.5173
63.2088
68.365
75.1391
83.7105
94.1491
106.247
119.219
131.29
138.258
135.918
122.975
103.661
83.9858
66.7325
52.4409
40.9908
32.0464
25.2014
19.8046
15.5242
12.238
9.75591
7.83109
6.31313
5.12685
4.21747
3.51349
2.96622
2.54109
2.21056
1.94995
1.74057
1.56137
1.38757
1.18637
0.911759
0.503143
54.1804
55.0289
57.1574
60.6507
65.6352
72.3946
81.3385
92.9305
107.542
125.017
143.058
156.265
154.284
135.025
108.947
85.0515
65.2166
49.6133
37.7849
29.119
23.2837
18.294
13.6539
10.278
7.97974
6.2823
4.97888
3.98553
3.22941
2.65732
2.22126
1.89003
1.64437
1.46429
1.33909
1.2571
1.2056
1.15618
1.04302
0.687034
51.0663
51.7948
53.6523
56.7583
61.3198
67.7727
76.8331
89.589
107.64
133.258
163.004
193.022
195.274
162.967
124.622
94.485
69.1331
50.3384
36.9562
27.6644
19.004
16.3535
11.1776
7.35803
4.84252
3.04023
1.7404
0.815875
0.161004
-0.315132
-0.670361
-0.928383
-1.10269
-1.21149
-1.25034
-1.20959
-1.07739
-0.849578
-0.560727
-0.409481
47.1108
47.6595
49.0919
51.5435
55.2672
60.7929
69.0617
81.7018
101.554
137.58
194.108
259.529
275.726
188.013
129.997
92.3016
59.7392
39.0891
26.1644
18.3462
15.6106
7.43195
5.11556
3.42997
1.77592
0.396969
-0.631617
-1.43439
-2.02956
-2.4755
-2.81629
-3.05583
-3.21203
-3.30189
-3.30655
-3.18735
-2.89483
-2.3486
-1.49656
-0.671141
42.528
42.8318
43.6725
45.1639
47.5297
51.2436
57.1995
67.1315
84.5972
128.868
206.487
371.542
511.121
171.733
152.835
92.9348
47.3496
24.2351
11.9683
4.6214
-4.17819
-32.076
-29.1064
-26.8627
-25.609
-24.3155
-23.0973
-22.0738
-21.2674
-20.5897
-19.9849
-19.4474
-18.9359
-18.4061
-17.8206
-17.1145
-16.1612
-14.6999
-12.1422
-6.97906
37.5991
37.6163
37.7325
38.0046
38.54
39.5543
41.4575
45.0342
51.8225
84.5039
151.744
371.975
1815.4
268.576
66.3952
13.7578
-2.08389
-8.8695
-14.0697
-18.9421
-2.51526
-5.13488
-9.68595
-11.9696
-12.8501
-13.2652
-13.5178
-13.6704
-13.7201
-13.6819
-13.5932
-13.4233
-13.1779
-12.8357
-12.333
-11.5507
-10.242
-7.92646
-3.80537
32.693
32.4072
31.7429
30.6857
29.1867
27.1251
24.2544
20.0243
13.05
15.9246
6.65569
-115.816
-829.217
-861.403
-240.326
-78.9252
-42.1561
-29.3853
-23.2132
-17.8124
-11.9835
-21.2467
-17.4819
-13.6406
-11.3936
-9.86512
-8.71497
-7.87121
-7.26418
-6.81861
-6.47851
-6.19728
-5.95951
-5.72947
-5.46439
-5.11014
-4.58983
-3.7798
-2.52879
-0.824786
28.1974
27.6168
26.218
23.9203
20.549
15.738
8.82529
-1.40258
-17.3119
-35.1987
-89.3802
-199.095
-364.446
-385.101
-240.772
-132.261
-78.5798
-50.9117
-35.3537
-25.4716
-19.5887
-18.4952
-12.39
-7.4045
-4.88054
-3.59877
-2.77734
-2.21111
-1.83841
-1.59858
-1.43751
-1.32181
-1.23208
-1.14122
-1.02804
-0.868276
-0.632744
-0.293774
0.130298
0.41691
24.463
23.6379
21.6429
18.3465
13.5135
6.67328
-2.95891
-16.6639
-36.6056
-66.5476
-107.853
-159.944
-207.462
-213.995
-173.492
-122.08
-83.4974
-58.7672
-42.5865
-31.3399
-23.6877
-19.2514
-14.2468
-10.2085
-7.60345
-5.87146
-4.56158
-3.52516
-2.71574
-2.08699
-1.59164
-1.19286
-0.870208
-0.599552
-0.364772
-0.153363
0.0411584
0.212021
0.316361
0.228195
21.7943
20.8049
18.3913
14.4111
8.61959
0.542918
-10.5266
-25.5355
-45.6534
-72.0494
-104.63
-139.814
-167.59
-173.126
-151.79
-117.46
-86.216
-63.2968
-47.0296
-35.069
-26.1898
-19.7132
-14.5256
-10.3827
-7.27906
-5.0141
-3.33546
-2.07571
-1.13521
-0.439942
0.072179
0.448791
0.72328
0.920239
1.05581
1.13715
1.16068
1.10636
0.925424
0.505849
20.4063
19.3319
16.7034
12.3789
6.1202
-2.52527
-14.1801
-29.5553
-49.2944
-73.5722
-101.204
-128.414
-148.336
-152.946
-139.167
-113.768
-87.1875
-65.4838
-49.1912
-36.9152
-27.5671
-20.5204
-15.1826
-11.0553
-7.91915
-5.60027
-3.88843
-2.60459
-1.631
-0.890697
-0.327153
0.10257
0.42882
0.671737
0.842325
0.943171
0.96605
0.890176
0.68072
0.285805
55.5267
56.3346
58.3311
61.5271
65.9037
71.4905
78.2875
86.1358
94.5948
102.78
109.215
111.865
108.85
99.7132
86.3282
71.819
58.3789
46.8099
37.2027
29.4009
23.1584
18.2165
14.3512
11.3527
9.02883
7.21069
5.7797
4.66153
3.80357
3.13653
2.6191
2.21451
1.90021
1.654
1.45248
1.27416
1.1015
0.909576
0.680918
0.366377
54.4813
55.2574
57.1875
60.2978
64.602
70.1842
77.1325
85.4211
94.7721
104.427
112.82
117.194
114.236
103.177
87.3419
71.2542
57.0122
45.0688
35.3742
27.6475
21.5194
16.7266
13.0032
10.1627
7.98407
6.26596
4.89328
3.80222
2.99987
2.36239
1.8607
1.47381
1.17433
0.935897
0.753295
0.612535
0.488964
0.365965
0.221649
0.102147
52.4284
53.1368
54.9178
57.8257
61.9315
67.4184
74.5449
83.57
94.6216
107.363
119.98
128.202
125.214
109.519
88.9746
70.1701
54.3654
41.6585
31.8071
24.2499
18.2477
13.9451
10.4315
7.76935
5.78851
4.26205
3.09329
2.19867
1.47773
0.954176
0.568081
0.283838
0.0828399
-0.0462564
-0.122042
-0.145143
-0.120567
-0.0514871
0.0424657
0.120922
49.4468
50.0435
51.5671
54.1014
57.78
62.901
69.9451
79.609
92.8362
110.744
135.001
155.886
155.883
130.353
100.495
76.606
56.2653
41.0435
30.0297
22.1025
11.3485
8.58667
5.66645
3.15315
1.17436
-0.406096
-1.6256
-2.53127
-3.15781
-3.58554
-3.88399
-4.07848
-4.18454
-4.22104
-4.1822
-4.04723
-3.79528
-3.37783
-2.71966
-1.65552
45.6751
46.1048
47.2379
49.1679
52.0659
56.3005
62.5087
71.7653
85.8632
114.445
154.225
199.596
207.35
139.526
98.3001
69.3624
43.7482
27.5089
17.2763
11.084
9.47083
-2.49515
-3.82059
-5.00179
-6.34607
-7.36563
-8.11313
-8.88978
-9.28522
-9.47288
-9.56297
-9.58701
-9.53006
-9.39749
-9.20769
-8.88898
-8.3696
-7.50568
-6.06537
-3.73373
41.3181
41.528
42.1285
43.1978
44.8873
47.517
51.6846
58.5214
70.2639
104.278
163.031
286.795
390.049
104.556
113.579
55.9881
18.8773
1.13366
-7.90425
-12.5504
-10.1895
-23.8672
-26.2374
-30.8154
-32.4313
-32.4493
-31.9315
-31.0172
-30.2237
-29.4623
-28.6837
-27.8778
-27.086
-26.292
-25.4193
-24.4004
-23.0868
-21.1281
-17.7068
-10.8041
36.6535
36.6028
36.5598
36.5565
36.6542
36.9804
37.7763
39.4955
43.0034
67.5329
118.649
299.613
1634.72
252.387
-20.6089
-62.2484
-69.6556
-70.3277
-68.4386
-63.866
-37.0034
-35.9454
-37.7746
-37.7623
-36.7058
-35.495
-34.3359
-33.2936
-32.3092
-31.3505
-30.4361
-29.5307
-28.5857
-27.6054
-26.4883
-25.0709
-22.9692
-19.2877
-11.6823
32.0217
31.6957
30.9648
29.8015
28.1502
25.8893
22.7823
18.3478
11.4932
12.7682
4.49899
-90.5138
-659.278
-655.361
-194.848
-81.8138
-54.1795
-42.709
-36.3037
-30.5782
-27.2389
-30.2255
-26.441
-22.5325
-20.1307
-18.4156
-17.1038
-16.0971
-15.3119
-14.6793
-14.1455
-13.6767
-13.2601
-12.8157
-12.3297
-11.7459
-10.9591
-9.77477
-7.82542
-4.35465
27.7666
27.1926
25.8165
23.5708
20.312
15.7369
9.31303
0.113951
-13.5041
-28.7051
-71.9261
-155.62
-279.709
-296.43
-190.826
-110.293
-68.981
-46.6487
-33.6097
-25.3461
-22.7433
-18.0877
-14.6809
-11.6872
-9.78548
-8.51987
-7.55819
-6.79855
-6.20146
-5.73175
-5.35346
-5.03809
-4.77051
-4.51754
-4.25429
-3.95007
-3.55846
-3.01346
-2.22616
-1.09207
24.2448
23.4586
21.5531
18.4342
13.9164
7.62207
-1.06187
-13.1039
-30.0819
-54.6956
-87.6203
-127.764
-163.391
-169.238
-139.829
-101.186
-71.085
-51.0028
-37.4259
-27.7663
-21.0258
-17.346
-13.979
-11.0885
-8.90489
-7.27411
-6.00071
-4.98473
-4.17551
-3.53001
-3.00936
-2.58141
-2.22649
-1.91929
-1.64218
-1.37957
-1.11961
-0.853509
-0.583797
-0.323275
21.7254
20.7906
18.5223
14.8055
9.4557
2.10022
-7.80852
-20.9761
-38.2222
-60.2842
-86.8561
-114.914
-136.866
-141.364
-125.255
-98.8485
-74.0611
-55.2805
-41.5915
-31.3403
-23.6178
-17.9998
-13.7025
-10.3096
-7.70316
-5.74088
-4.25514
-3.119
-2.24762
-1.58
-1.06747
-0.672952
-0.369096
-0.134832
0.0441696
0.175382
0.2572
0.277571
0.212331
0.0365786
20.4156
19.4068
16.946
12.9247
7.1644
-0.687551
-11.1092
-24.621
-41.6425
-62.1702
-85.1011
-107.324
-123.427
-127.238
-116.558
-96.4709
-75.0983
-57.2099
-43.4652
-32.9355
-24.8207
-18.6675
-14.0458
-10.5189
-7.82505
-5.7867
-4.24563
-3.07036
-2.16708
-1.47071
-0.933196
-0.517163
-0.195633
0.0493762
0.22853
0.345357
0.392903
0.354474
0.210648
-0.0321861
53.5577
54.2189
55.8584
58.465
61.9919
66.4199
71.6915
77.6082
83.742
89.3374
93.2525
94.0664
90.5725
82.6353
71.7114
60.0334
49.1841
39.7541
31.8188
25.2777
19.9658
15.7189
12.4016
9.88097
7.94527
6.41501
5.19736
4.24229
3.5052
2.93521
2.49425
2.15259
1.88691
1.67605
1.50138
1.34492
1.1864
1.00196
0.764012
0.439916
52.5577
53.1875
54.7606
57.2761
60.7112
65.0842
70.3957
76.5305
83.1526
89.5568
94.4912
96.0605
92.3652
83.191
70.9332
58.5556
47.4678
37.9826
30.1102
23.6959
18.4992
14.3371
11.1358
8.81482
7.07153
5.69353
4.59652
3.73266
3.06285
2.5345
2.11624
1.78608
1.52525
1.31669
1.1488
1.0097
0.882173
0.745947
0.57328
0.335011
50.5979
51.1613
52.5899
54.9005
58.1131
62.313
67.6105
74.065
81.5667
89.616
96.8493
100.296
95.8253
83.2426
68.1413
54.6311
43.1266
33.468
25.625
19.3261
14.1933
10.192
7.76503
6.07981
4.63538
3.44663
2.55729
1.91327
1.44319
1.10649
0.865075
0.694382
0.579635
0.508301
0.471683
0.4682
0.49408
0.536925
0.560211
0.453769
47.7604
48.2178
49.4043
51.3589
54.1431
57.9199
62.9368
69.5039
77.9369
88.3971
99.1806
106.719
100.512
80.8332
62.328
48.3364
36.6429
27.3224
20.0953
14.1067
7.92102
1.74871
1.97663
2.46206
1.89105
1.02128
0.27208
-0.316725
-0.765355
-1.10616
-1.36427
-1.54976
-1.66794
-1.72675
-1.72258
-1.64043
-1.46372
-1.16865
-0.748465
-0.26952
44.1834
44.4903
45.3199
46.7254
48.7877
51.718
55.8461
61.6671
69.8151
89.3852
109.398
128.94
123.181
82.9273
58.9574
44.171
28.5488
17.6235
10.5017
5.4543
0.250336
-13.7579
-11.095
-8.2062
-6.94275
-6.28774
-5.83117
-5.52483
-5.28086
-5.09176
-4.95011
-4.83468
-4.72745
-4.61432
-4.46061
-4.22013
-3.83175
-3.1994
-2.2359
-1.04948
40.0675
40.1802
40.5373
41.1821
42.1885
43.7224
46.0756
49.735
55.4663
76.6514
102.552
145.41
165.4
28.3527
22.9253
4.84247
-4.95807
-9.10934
-12.0607
-14.4833
-20.9322
-13.2889
-14.9765
-17.2354
-17.9735
-17.9665
-17.7058
-17.3181
-16.9062
-16.471
-16.0107
-15.5203
-15.033
-14.5479
-14.0061
-13.3479
-12.4636
-11.124
-8.90567
-5.14251
35.6771
35.5629
35.3596
35.0795
34.7367
34.3675
34.0289
33.7978
33.7214
47.5294
58.803
128.582
168.499
-707.901
-131.732
-88.6769
-62.423
-56.8727
-53.3374
-51.2962
-69.0568
-40.4327
-38.3432
-36.2785
-34.3237
-32.4027
-30.6904
-29.2068
-27.9161
-26.761
-25.7051
-24.7327
-23.8262
-22.9287
-22.0053
-20.989
-19.7605
-18.0336
-15.1838
-9.62786
31.3268
30.9746
30.1791
28.9105
27.11
24.6483
21.2823
16.555
9.55649
8.2501
-12.8788
-79.8808
-303.906
-259.551
-110.128
-60.0958
-36.92
-26.5475
-21.1652
-16.9383
-8.99327
5.96902
2.37471
-1.57867
-3.28678
-4.12248
-4.67765
-5.05943
-5.30411
-5.44784
-5.51938
-5.54451
-5.52098
-5.42658
-5.24728
-4.96002
-4.49747
-3.73323
-2.50353
-0.847548
27.3438
26.7732
25.4235
23.2365
20.0985
15.7642
9.80958
1.49919
-10.5392
-29.0941
-52.2841
-105.867
-176.343
-189.484
-131.718
-82.8432
-54.4226
-37.3513
-26.8268
-19.3398
-9.60122
-1.03406
-2.3819
-3.9832
-4.05614
-3.6251
-3.19008
-2.80706
-2.46811
-2.17722
-1.93387
-1.72935
-1.55709
-1.40461
-1.24141
-1.04575
-0.792108
-0.446647
-0.0179917
0.308868
24.0413
23.2913
21.4879
18.5584
14.3686
8.63512
0.912894
-9.46638
-23.471
-42.3453
-66.6764
-94.3233
-117.746
-122.476
-104.755
-79.1283
-57.5044
-42.0804
-31.095
-22.7054
-15.6263
-10.9368
-8.38908
-6.53659
-4.84208
-3.44088
-2.38821
-1.60703
-1.01773
-0.570306
-0.229698
0.0320407
0.232846
0.391668
0.528459
0.652448
0.765805
0.856298
0.86692
0.617271
21.6827
20.8095
18.6911
15.2516
10.3626
3.75101
-4.97153
-16.2699
-30.6048
-48.2117
-68.5182
-89.2776
-104.994
-108.625
-98.0525
-79.6334
-61.3812
-46.7534
-35.6209
-26.9672
-20.0857
-14.79
-10.7647
-7.81089
-5.58837
-3.88639
-2.58828
-1.59784
-0.837536
-0.252123
0.19735
0.540403
0.79898
0.989994
1.12499
1.20859
1.23407
1.17751
0.984292
0.538886
20.4559
19.5174
17.2346
13.5335
8.29455
1.26236
-7.89751
-19.5128
-33.7765
-50.4909
-68.6206
-85.7596
-97.9431
-100.971
-93.4486
-78.7813
-62.5865
-48.4831
-37.2633
-28.4301
-21.4324
-15.9571
-11.7743
-8.63259
-6.23815
-4.37762
-2.931
-1.81326
-0.952204
-0.289743
0.217966
0.603964
0.893093
1.10238
1.24144
1.31272
1.3061
1.19681
0.937924
0.448557
51.6335
52.1553
53.4542
55.5042
58.2329
61.5834
65.4555
69.6318
73.7191
77.1046
78.96
78.37
74.6744
67.9672
59.303
50.1652
41.6168
34.0899
27.6667
22.3089
17.9283
14.4236
11.6913
9.59551
7.95159
6.62184
5.54284
4.67923
3.996
3.45553
3.02601
2.68229
2.40331
2.17001
1.96468
1.76917
1.56069
1.31188
0.98925
0.55364
50.6794
51.1709
52.404
54.3619
56.9844
60.2407
64.0649
68.2853
72.5522
76.2612
78.4998
78.1212
74.1856
66.8342
57.6089
48.3022
39.8278
32.4241
26.1504
20.9712
16.7738
13.4553
10.9432
9.05629
7.56404
6.34212
5.34619
4.54208
3.89376
3.36809
2.93907
2.58716
2.29617
2.05077
1.83667
1.63997
1.44084
1.21192
0.914897
0.502571
48.8132
49.2415
50.3343
52.0892
54.4748
57.5001
61.1634
65.3844
69.9141
74.1967
77.1724
77.1692
72.4436
63.3894
53.065
43.751
35.646
28.5397
22.5383
17.6441
13.7348
10.8061
8.91396
7.44531
6.09861
4.93881
4.02859
3.33615
2.80571
2.39627
2.08077
1.83856
1.65385
1.5134
1.40605
1.32261
1.24867
1.1572
0.992721
0.636373
46.1197
46.4502
47.3183
48.7337
50.701
53.2704
56.5146
60.4731
65.068
69.9075
73.8659