/*--------------------------------*- C++ -*----------------------------------*\
| =========                 |                                                 |
| \\      /  F ield         | OpenFOAM: The Open Source CFD Toolbox           |
|  \\    /   O peration     | Version:  2306                                  |
|   \\  /    A nd           | Website:  www.openfoam.com                      |
|    \\/     M anipulation  |                                                 |
\*---------------------------------------------------------------------------*/
FoamFile
{
    version     2.0;
    format      ascii;
    arch        "LSB;label=32;scalar=64";
    class       surfaceScalarField;
    location    "2";
    object      phi;
}
// * * * * * * * * * * * * * * * * * * * * * * * * * * * * * * * * * * * * * //

dimensions      [0 3 -1 0 0 0 0];

oriented        oriented;

internalField   nonuniform List<scalar> 
338621
(
24.9948
0.00260013
0.00121439
24.9869
0.0052965
0.00257911
24.9744
0.0082607
0.00417162
24.9568
0.0113626
0.00611747
24.9332
0.0147164
0.00871445
24.9002
0.0207358
0.0121169
24.8532
0.0302037
0.0164331
24.7902
0.0407319
0.0219694
24.7283
0.0323967
0.0289601
24.6855
0.00497384
0.0373236
24.6576
-0.0197377
0.0469253
24.5842
0.0153403
0.0573094
24.6132
-0.0978939
0.0681884
24.7437
-0.209817
0.0785573
24.7853
-0.129999
0.0877387
24.8173
-0.127736
0.0952783
24.8456
-0.129798
0.101111
24.8685
-0.128705
0.105629
24.8877
-0.128266
0.108898
24.9142
-0.137812
0.111253
24.944
-0.142576
0.112714
24.9669
-0.136627
0.113737
24.9846
-0.132222
0.114492
24.9994
-0.129659
0.114941
25.012
-0.127929
0.11531
25.0227
-0.126401
0.115676
25.0321
-0.125405
0.11601
25.0402
-0.124395
0.116327
25.047
-0.123534
0.116734
25.0529
-0.123085
0.117199
25.058
-0.122799
0.117692
25.0625
-0.122683
0.118162
25.0665
-0.122657
0.118691
25.07
-0.122706
0.119222
25.0731
-0.122831
0.119681
25.0764
-0.123321
0.120062
25.0797
-0.123658
0.120292
25.0833
-0.12402
0.120424
25.0874
-0.124445
0.120395
-0.125195
0.119932
24.9948
0.00516667
0.00119164
24.9869
0.0107067
0.00249859
24.974
0.0170179
0.00407141
24.9563
0.0229439
0.00599591
24.9327
0.0296168
0.00856501
24.9028
0.0385147
0.0118558
24.8669
0.0496379
0.0162168
24.821
0.0644288
0.0218384
24.7565
0.067544
0.0290055
24.682
0.0412321
0.037779
24.6394
-0.0259349
0.0481719
24.6267
-0.0317852
0.0593101
24.6656
-0.20924
0.0718211
24.7497
-0.377957
0.0834606
24.8299
-0.303986
0.0933599
24.8978
-0.297262
0.101233
24.9495
-0.28899
0.107209
24.9913
-0.282244
0.111695
25.0359
-0.287937
0.114943
25.0697
-0.288763
0.117138
25.09
-0.281447
0.118627
25.1045
-0.270732
0.119622
25.1145
-0.262698
0.120441
25.1226
-0.258756
0.121002
25.1289
-0.255701
0.121455
25.1341
-0.253375
0.121839
25.1377
-0.25124
0.122253
25.1407
-0.250073
0.122668
25.1433
-0.249283
0.123133
25.1451
-0.24854
0.123639
25.1464
-0.248309
0.124169
25.1471
-0.248066
0.124704
25.1478
-0.248533
0.125246
25.1482
-0.2489
0.125754
25.1486
-0.24941
0.126191
25.149
-0.250306
0.12657
25.1496
-0.251077
0.12677
25.1507
-0.251953
0.12688
25.1526
-0.253144
0.126781
-0.253757
0.126306
24.9952
0.00736627
0.00113642
24.9873
0.0161586
0.00238246
24.9751
0.0253029
0.00384941
24.9568
0.0353512
0.00575763
24.9322
0.045894
0.00823519
24.9007
0.0583331
0.011476
24.8606
0.0736945
0.0158747
24.8112
0.0918917
0.0216222
24.7421
0.107141
0.0292013
24.644
0.100163
0.0389212
24.5675
0.00570407
0.0508721
-0.00580428
0.00517341
-0.00575238
24.6645
-0.0385902
0.0650544
-0.0583825
-0.0386518
-0.0586067
24.5571
-0.0112206
0.0786039
-0.0955813
0.0205825
-0.0945924
24.7298
-0.182616
0.0918839
-0.124492
-0.212926
-0.122869
24.823
-0.129707
0.102205
-0.122459
-0.127562
-0.119933
24.8834
-0.119115
0.110043
-0.11732
-0.116396
-0.115005
24.9369
-0.115589
0.115882
-0.115962
-0.113507
-0.113361
25.0024
-0.118454
0.120199
-0.117513
-0.116349
-0.115501
25.0451
-0.115116
0.123264
-0.113747
-0.11311
-0.11184
25.0705
-0.111401
0.125214
-0.11033
-0.109371
-0.108261
25.0886
-0.426032
0.126545
25.1026
-0.412178
0.127473
25.1115
-0.399884
0.12832
25.1185
-0.394863
0.129108
25.1243
-0.391369
0.129857
25.1287
-0.388319
0.130522
25.1318
-0.385458
0.131126
25.1343
-0.384265
0.131703
25.1356
-0.382809
0.132268
25.1367
-0.382503
0.132829
25.1371
-0.382026
0.133378
25.1372
-0.382085
0.133903
25.1367
-0.382399
0.134338
25.1361
-0.383147
0.134804
25.1352
-0.383557
0.135101
25.1342
-0.38462
0.135329
25.1336
-0.385834
0.135349
25.1334
-0.386982
0.135242
25.1335
-0.388156
0.134911
-0.389192
0.13425
24.9955
0.00979737
0.00105142
24.9886
0.0208141
0.00220575
24.9767
0.0336491
0.00354155
24.9596
0.0469727
0.00535011
24.9349
0.0628828
0.00766216
24.9003
0.0820107
0.0107765
24.8546
0.104172
0.0150483
24.7963
0.129201
0.0208071
24.7293
0.145241
0.0286812
6.14117
0.0374879
0.0393177
0.0546529
0.0381952
0.0539756
6.16323
6.14019
6.16106
6.12352
0.0175843
0.00575449
-6.11039
6.09815
-0.0339905
0.00761913
-6.10203
6.1234
-0.0422037
0.0095914
-6.11567
6.14256
-0.221161
0.0116422
-6.16141
6.17579
-0.157272
0.0131773
-6.18919
6.19995
-0.144084
0.0142015
-6.2113
6.22559
-0.144895
0.0150167
-6.23753
6.2447
-0.141267
0.0156474
-6.25048
6.25565
-0.136369
0.0160914
-6.26003
6.26399
-0.131779
0.0164237
25.0981
-0.145305
0.136099
-0.146284
-0.143491
-0.14508
-6.26753
-6.27212
-6.26802
-6.27234
25.1043
-0.555847
0.13751
25.1074
-0.541037
0.13805
25.1107
-0.536791
0.138599
25.1122
-0.532254
0.139433
25.112
-0.528527
0.140369
25.1115
-0.526211
0.141312
25.1096
-0.524578
0.142229
25.1066
-0.522909
0.143093
25.1026
-0.522383
0.143878
25.0979
-0.521931
0.144558
25.0924
-0.521701
0.145114
25.0861
-0.521572
0.145483
25.0794
-0.522259
0.145801
25.0725
-0.522473
0.145842
25.0652
-0.523016
0.145723
25.0579
-0.523837
0.145305
25.0508
-0.524479
0.144612
25.045
-0.526013
0.143653
-0.526413
0.142332
24.9972
0.0104924
0.000935838
24.9912
0.0248555
0.00196287
24.9813
0.0403412
0.00314191
24.9657
0.0577262
0.00475012
24.9428
0.0789732
0.00680485
24.9093
0.105819
0.00958592
24.8593
0.140635
0.0133995
24.785
0.184618
0.0187247
6.17112
0.23457
0.0260615
6.16387
6.1707
6.16381
6.15499
0.0496912
0.00391676
6.12933
0.00554222
-6.15738
0.0201942
0.0120433
0.0117726
0.0204643
-0.0419698
-6.0764
6.04197
0.00760235
-0.00210142
0.00430454
0.00377968
-0.00178901
0.022639
-6.04121
6.05925
0.0100202
0.0291067
-0.040108
-0.0403971
-0.0190861
0.0424414
-6.1115
6.13686
0.012745
-0.0522572
-0.0669242
-0.104844
-0.05271
0.238648
-6.16965
6.18203
0.0141259
-0.0510536
-0.0549862
-0.0542665
-0.0514886
0.185299
-6.19395
6.20745
0.0149631
-0.0513637
-0.0505741
-0.050491
-0.0513748
0.17534
-6.22099
6.23275
0.015644
-0.049653
-0.0493621
-0.0494654
-0.0495232
0.170626
-6.24232
6.24953
0.016173
-0.0471243
-0.0467116
-0.0468948
-0.0469361
0.16431
-6.25588
6.26045
0.0166231
-0.0447074
-0.0445684
-0.0447799
-0.0445104
0.157395
-6.26451
6.26658
0.0170832
-0.0425957
-0.0426913
-0.0428929
-0.0424097
0.151435
-6.26957
6.27134
-0.165015
0.017943
25.0405
-0.662003
0.139411
-6.27125
-6.26447
-6.27202
-6.26598
25.0147
-0.654625
0.139366
24.9876
-0.648118
0.138399
24.9607
-0.642814
0.137547
24.935
-0.639746
0.136863
24.9103
-0.637757
0.136278
24.8862
-0.636189
0.135714
24.8632
-0.635032
0.135115
24.8404
-0.633999
0.134422
24.8181
-0.63327
0.133607
24.7965
-0.632721
0.132646
24.7756
-0.63213
0.131493
24.7548
-0.631718
0.130243
24.735
-0.63144
0.128761
24.716
-0.631078
0.127066
24.698
-0.630926
0.125088
24.6817
-0.630959
0.122779
24.6672
-0.63171
0.120153
-0.633923
0.117196
24.9999
0.00914381
0.000790937
24.9965
0.0265527
0.00165342
24.9889
0.0452463
0.00265062
24.9771
0.0655555
0.00392905
24.9595
0.0909446
0.00561922
24.9324
0.124997
0.00784684
24.8893
0.172831
0.0108342
24.817
0.241854
0.015017
6.17082
0.348594
0.0206522
6.17038
6.17081
6.1702
-0.0657217
6.14518
0.0882627
0.00310113
-0.0198316
-1.5276
1.52244
0.0244073
0.000585297
-0.0196366
-1.50415
1.49198
0.0310654
0.000744502
-1.46823
0.0520449
1.47805
-0.0630158
0.00115879
-1.52933
0.0847479
1.53797
-0.0947494
0.00136193
-1.53648
0.0618538
-0.0657144
0.00165579
1.53869
-1.5482
0.059503
-0.0636073
0.00155814
1.55074
0.0567062
-1.55636
1.55778
-0.0596467
0.0015274
0.0525578
-1.56063
1.56117
-0.0546229
0.00152794
0.0496804
-1.56183
1.56193
-0.0513389
0.00155952
0.0471351
-1.56134
1.56095
-0.048364
0.00161962
-1.55408
0.180782
6.15431
-0.174877
0.0193743
-1.53903
-1.55269
-1.53379
23.8168
-0.7545
0.0650489
-6.09548
-5.80291
-6.10228
-5.78866
23.8344
-0.736147
0.0639072
23.8496
-0.72594
0.0625919
23.8645
-0.71883
0.0611347
23.8788
-0.713856
0.059835
23.8924
-0.710037
0.0586949
23.9054
-0.706852
0.0576263
23.9178
-0.703993
0.0565541
23.9297
-0.701354
0.0554341
23.9411
-0.69885
0.0542432
23.9518
-0.696417
0.0529637
23.9623
-0.694158
0.0515547
23.9724
-0.691921
0.0500606
23.9822
-0.689658
0.0484001
23.9922
-0.687554
0.0465448
24.0022
-0.685369
0.0444417
24.0124
-0.683161
0.0420031
24.0224
-0.680889
0.0391132
-0.677964
0.0356957
25.0031
0.00521792
0.000644528
25.0037
0.0246281
0.00131416
25.0008
0.0459627
0.0020827
24.9952
0.0681731
0.00298962
24.9865
0.0954794
0.00415472
24.9731
0.132777
0.00566683
24.9535
0.184864
0.00753854
24.9225
0.262915
0.00992298
6.21348
0.389076
0.0127053
6.22152
6.21316
6.22114
-0.106625
6.19808
0.120208
0.00182087
-0.039552
-1.54212
1.53596
0.0453981
0.000310172
-0.0825853
-1.50647
1.48789
0.100872
0.000291599
0.00437681
-0.0746514
0.0748356
-0.00459688
3.58913e-05
-0.0213892
0.000450357
0.020901
2.57214e-06
3.53177e-05
-0.207141
0.0106958
-0.0214955
-0.000942779
0.218883
-1.16402
0.0543853
-0.0741347
6.82418e-05
1.1837
0.0482622
-1.22627
1.23595
-0.0577762
-0.000170783
0.0468906
-1.26642
1.27662
-0.0567394
-0.000346601
0.0445363
-1.30349
1.31191
-0.0524349
-0.000520885
0.0432926
-1.33402
1.34201
-0.0505829
-0.000698756
-1.38959
0.203851
5.844
-0.219828
-0.0174569
-1.4953
-1.42379
-1.50189
24.1325
-0.678603
-0.114071
-5.89186
-6.17408
-5.85615
-6.17224
24.1648
-0.653433
-0.115053
24.1953
-0.641668
-0.114784
24.2244
-0.633567
-0.114343
24.2512
-0.627049
-0.113591
24.2756
-0.622122
-0.112345
24.298
-0.618506
-0.11069
24.3184
-0.61574
-0.10864
24.337
-0.613649
-0.106349
24.3541
-0.612023
-0.103931
24.3699
-0.610706
-0.101525
24.3846
-0.609672
-0.0991656
24.3984
-0.608735
-0.0970148
24.4116
-0.607782
-0.0950411
24.4241
-0.60666
-0.0933639
24.4363
-0.605507
-0.0920616
24.4483
-0.603947
-0.0912081
24.4601
-0.601716
-0.090994
-0.598073
-0.0917673
25.0049
0.000157612
0.000473287
25.0102
0.0183057
0.000955896
25.0153
0.0394402
0.00145996
25.0194
0.0620523
0.00201935
25.0215
0.0908292
0.00261371
25.0267
0.124286
0.00330182
25.0389
0.168712
0.00393154
25.0651
0.232507
0.00429881
6.27474
0.333347
0.00401637
6.28254
6.2749
6.28471
-0.112227
6.28255
0.10402
0.000405316
-0.0447904
-1.5781
1.57982
0.0430576
1.19428e-05
-0.0844063
-1.59855
1.61368
-0.000215741
0.0694864
-0.0258256
-1.71451
1.75359
-0.00145666
0.0559668
-0.0209276
-0.0259135
-0.0209334
0.101251
-1.71356
1.68372
-0.00105177
-0.0703627
0.10263
-1.60952
-0.00132019
1.59898
-0.090774
0.0782176
-1.58459
-0.00140663
1.58168
-0.0739057
0.0571369
-1.57699
1.57601
-0.05464
-0.00152112
0.0578567
-1.5741
1.57225
-0.0543733
-0.00162918
0.0521145
-1.57172
1.57103
-0.0497085
-0.0017241
0.0483742
-1.57005
1.56956
-0.0460713
-0.00181275
-1.56733
0.181612
6.26387
-0.16102
-0.0163156
-1.56683
-1.56706
-1.56693
25.0703
-0.54679
-0.128501
-6.26778
-6.26744
-6.27016
-6.26821
25.0732
-0.526986
-0.129384
25.0723
-0.511475
-0.129278
25.0702
-0.502505
-0.129027
25.0682
-0.496239
-0.128758
25.0662
-0.491805
-0.128367
25.0643
-0.488632
-0.127937
25.0621
-0.486149
-0.12742
25.0602
-0.48487
-0.126883
25.0583
-0.483795
-0.126351
25.0564
-0.482861
-0.125911
25.0548
-0.48258
-0.125439
25.0533
-0.482135
-0.125137
25.0517
-0.48134
-0.124893
25.0509
-0.48093
-0.124839
25.0504
-0.480039
-0.124997
25.0505
-0.478692
-0.125401
25.0515
-0.476568
-0.126136
-0.473851
-0.127153
25.0058
-0.00496525
0.000268255
25.0144
0.00912053
0.00059195
25.0276
0.025411
0.000856472
25.0391
0.0494789
0.00106475
25.0547
0.0741359
0.00117047
25.0784
0.0995872
0.00107123
25.1166
0.130094
0.000594689
25.1801
0.169838
-0.000731027
6.32103
0.231695
-0.00342653
6.31921
6.32532
6.31973
-0.0891926
6.33721
0.0737751
-0.000754937
-0.0333604
6.41413
0.0880025
-0.00174529
-0.0345244
-0.0334384
-0.0340201
-6.36505
-0.033396
6.51843
0.0754918
-0.00369493
-0.0261058
-0.0331746
-0.0259607
-6.47159
-0.00692404
-6.5493
6.51549
-0.00686854
-0.00670445
0.0155691
-0.00715813
0.0458851
0.0461753
-6.53691
6.51472
-0.12542
-0.00971816
0.0399594
0.036898
0.0342921
0.0557337
-6.44983
6.41198
-0.17951
-0.0117285
0.0562305
0.0580844
0.0590453
0.0569587
-6.37188
6.33963
-0.177575
-0.013032
0.055682
0.0559064
0.0543122
0.047177
-6.3214
6.31003
-0.159487
-0.0140637
0.0462482
0.0460438
0.0454351
0.0451331
-6.3012
6.29515
-0.158463
-0.0148041
0.044888
0.0447506
0.0445278
0.0420425
-6.29058
6.28511
-0.145367
-0.0152558
0.0415179
0.041592
0.0409302
0.0389997
-6.28082
6.2754
-0.132911
-0.0155374
0.0385045
0.0385039
0.0378563
0.144012
-6.27392
6.27214
-0.126367
-0.0158634
25.0704
-0.408618
-0.129987
-6.26977
-6.26983
-6.26995
-6.26902
25.0641
-0.391008
-0.1297
25.0614
-0.379646
-0.129181
25.0596
-0.37195
-0.12876
25.0584
-0.3667
-0.128363
25.0574
-0.362864
-0.127919
25.0565
-0.360338
-0.127432
25.056
-0.358641
-0.126925
25.0551
-0.357603
-0.126415
25.0542
-0.357026
-0.125921
25.0534
-0.356528
-0.12549
25.0526
-0.356707
-0.125076
25.0516
-0.356417
-0.124688
25.0513
-0.356652
-0.124418
25.051
-0.356411
-0.124265
25.051
-0.355748
-0.124234
25.0519
-0.355241
-0.124387
25.0543
-0.35419
-0.124787
-0.353022
-0.125465
25.0065
-0.0101798
0.000182527
25.0165
-0.00125191
0.000323438
25.0257
0.0159213
0.000372879
25.0425
0.0323649
0.000310852
25.0695
0.0472655
-3.60855e-06
25.1033
0.0666297
-0.000698665
25.1511
0.0844539
-0.00201396
25.2179
0.107708
-0.00442854
25.3273
0.131079
-0.00862637
25.4329
0.144156
-0.0155241
-0.0614926
-0.0570253
-0.0585953
-0.0568114
25.5808
0.130797
-0.0260513
-0.0606983
-0.0640042
-0.0611888
-0.0665206
25.7147
0.0519198
-0.0410199
-0.041583
-0.0275663
-0.0445425
-0.0308319
25.592
-0.160212
-0.0589836
0.0223582
0.125531
0.0212415
0.173032
25.4989
-0.242893
-0.0778792
0.0851254
0.118898
0.100697
0.109529
25.4298
-0.254512
-0.093496
0.08499
0.150499
0.0333651
0.148641
25.3433
-0.359185
-0.105231
0.137445
0.140494
0.135545
0.137602
25.2584
-0.329157
-0.113067
0.131278
0.134946
0.128829
0.132136
25.1917
-0.338777
-0.118128
0.134185
0.131072
0.130934
0.127341
25.1486
-0.316636
-0.121177
0.123774
0.120464
0.120388
0.116227
25.1254
-0.296164
-0.122912
0.112698
0.1123
0.107939
0.10926
25.1071
-0.280108
-0.123823
0.10757
0.106727
0.104731
0.103184
25.0912
-0.268626
-0.124135
25.0822
-0.258034
-0.123955
25.0767
-0.250435
-0.123674
25.0727
-0.244577
-0.12345
25.0696
-0.240427
-0.123157
25.0675
-0.237867
-0.12289
25.0652
-0.235375
-0.122669
25.0633
-0.234262
-0.122516
25.0613
-0.233142
-0.122448
25.0596
-0.23288
-0.122467
25.0583
-0.232632
-0.122579
25.0567
-0.23226
-0.122785
25.0557
-0.232431
-0.122992
25.0544
-0.232083
-0.12334
25.0536
-0.231896
-0.123727
25.0539
-0.231768
-0.12419
25.0548
-0.231409
-0.124748
25.056
-0.230002
-0.125429
-0.228747
-0.126231
25.0068
-0.0152012
8.74416e-05
25.0102
-0.00473019
0.000130108
25.0182
0.00790586
2.95581e-05
25.0381
0.0127135
-0.000198542
25.064
0.0222773
-0.000772842
25.0938
0.0388645
-0.00185349
25.1421
0.0400089
-0.00366377
25.2038
0.0529994
-0.00660668
25.2833
0.0632894
-0.011335
25.3792
0.0670549
-0.0184335
25.486
0.0530684
-0.0284976
25.5655
0.014975
-0.0420045
25.5423
-0.0786547
-0.0578562
25.5272
-0.153107
-0.0740498
25.4037
-0.042311
-0.0882196
25.3207
-0.17617
-0.099531
25.2702
-0.171018
-0.10741
25.2086
-0.164247
-0.112853
25.164
-0.155757
-0.11622
25.1327
-0.146653
-0.118211
25.1102
-0.138338
-0.119277
25.0931
-0.131908
-0.119615
25.0812
-0.126566
-0.11959
25.0728
-0.122681
-0.119311
25.0669
-0.119675
-0.118973
25.0626
-0.11767
-0.118517
25.0589
-0.116012
-0.118125
25.0564
-0.115053
-0.117812
25.0543
-0.114683
-0.117528
25.0526
-0.114072
-0.117355
25.0511
-0.114157
-0.11727
25.0497
-0.11388
-0.117277
25.0489
-0.114164
-0.117323
25.0479
-0.114031
-0.117445
25.0478
-0.114275
-0.117639
25.0477
-0.114006
-0.117866
25.0482
-0.114155
-0.118134
25.0493
-0.113959
-0.118466
25.0516
-0.113462
-0.1189
-0.113824
-0.119482
24.9871
5.77853e-05
24.9823
8.25964e-05
24.9904
-8.67089e-05
25.0035
-0.000338962
25.027
-0.00105444
25.0683
-0.00223954
25.1128
-0.0041975
25.1735
-0.00733761
25.2495
-0.0122226
25.3364
-0.0192417
25.4189
-0.0288296
25.4759
-0.0412087
25.4534
-0.0554387
25.3711
-0.0700318
25.4127
-0.0832474
25.3314
-0.0943899
25.2631
-0.102367
25.2068
-0.10774
25.1623
-0.111162
25.1289
-0.11319
25.1048
-0.114266
25.0875
-0.114633
25.0755
-0.114561
25.067
-0.114195
25.0611
-0.113807
25.0568
-0.11337
25.0538
-0.113005
25.0516
-0.112798
25.0495
-0.112593
25.0479
-0.112551
25.0464
-0.112646
25.0453
-0.112797
25.0442
-0.113006
25.0434
-0.113301
25.0429
-0.113704
25.043
-0.114116
25.0434
-0.114542
25.0444
-0.115002
25.0465
-0.115533
-0.116182
24.9952
0.00196069
0.00237178
24.9879
0.004788
0.0049545
24.9764
0.0073922
0.00801966
24.9598
0.0105314
0.0118466
24.938
0.0133447
0.0167658
24.9082
0.0180077
0.0232078
24.866
0.0261699
0.0315855
24.8086
0.0359592
0.0423367
24.7531
0.0272487
0.0558006
24.7172
-0.000851045
0.0723323
24.693
-0.0221253
0.0912938
24.6315
0.00443537
0.112163
24.6606
-0.0968507
0.133648
24.7785
-0.195919
0.154382
24.8111
-0.119319
0.172513
24.8352
-0.117576
0.187202
24.8585
-0.121843
0.198567
24.8779
-0.12175
0.207208
24.8951
-0.122163
0.213546
24.9227
-0.134647
0.218039
24.9504
-0.136008
0.220999
24.9719
-0.130793
0.222981
24.989
-0.126885
0.224314
25.0031
-0.124475
0.225241
25.0149
-0.122358
0.225942
25.025
-0.120973
0.226529
25.0335
-0.11954
0.227083
25.0405
-0.118348
0.227652
25.0466
-0.117635
0.228303
25.0519
-0.117141
0.229065
25.0563
-0.116592
0.22991
25.0598
-0.116222
0.230824
25.0633
-0.116517
0.23175
25.0667
-0.116928
0.232723
25.0698
-0.116936
0.233595
25.073
-0.11758
0.234414
25.0763
-0.11802
0.234954
25.08
-0.118576
0.235336
25.0845
-0.11941
0.235307
-0.120098
0.234288
24.9953
0.00394162
0.00231635
24.988
0.00956262
0.00484282
24.9761
0.0153494
0.00785145
24.9596
0.0211144
0.0116287
24.9373
0.0272472
0.0165065
24.9094
0.034271
0.022939
24.8761
0.0435241
0.0313746
24.8334
0.0570886
0.0423633
24.7708
0.0612721
0.0564302
24.6955
0.0367765
0.0740106
24.6532
-0.0280464
0.0948501
24.5927
0.00421269
0.118225
24.6287
-0.205111
0.142326
24.7612
-0.41194
0.165373
24.8417
-0.292819
0.184829
24.9093
-0.285231
0.200198
24.9595
-0.277468
0.21197
24.9999
-0.271583
0.220694
25.0455
-0.279962
0.227015
25.0781
-0.281462
0.23132
25.0973
-0.270735
0.234127
25.111
-0.260845
0.235979
25.1204
-0.253025
0.237294
25.1275
-0.248837
0.23826
25.1333
-0.24576
0.239029
25.1374
-0.24289
0.239703
25.1402
-0.240475
0.240389
25.1427
-0.239321
0.241141
25.1443
-0.238124
0.241991
25.1452
-0.237321
0.242935
25.146
-0.237126
0.243951
25.1467
-0.237244
0.245005
25.1467
-0.237387
0.246102
25.1467
-0.238238
0.247138
25.1471
-0.23928
0.248086
25.1472
-0.239984
0.248881
25.1479
-0.241343
0.249455
25.1492
-0.242834
0.249753
25.1508
-0.243904
0.249695
-0.245413
0.248612
24.9954
0.00590676
0.00220713
24.9884
0.0142139
0.00462101
24.9767
0.0232197
0.00750911
24.9597
0.0324271
0.0111589
24.9364
0.0424441
0.0159192
24.9062
0.0532303
0.0222769
24.868
0.0661669
0.0307837
24.8214
0.082368
0.0421501
24.7558
0.0980216
0.0572031
24.6609
0.0929309
0.0766886
24.5843
0.00451078
0.100848
-0.00589093
0.00415975
-0.00523996
24.7194
-0.0392296
0.128694
-0.0595049
-0.038712
-0.0581992
24.5786
0.0205868
0.157447
-0.0952619
0.022525
-0.0920807
24.7409
-0.214705
0.184567
-0.123489
-0.211106
-0.118674
24.8304
-0.128091
0.205335
-0.12041
-0.123215
-0.114682
24.8891
-0.1172
0.220898
-0.115932
-0.111986
-0.110153
24.9424
-0.11474
0.232677
-0.114573
-0.109306
-0.109001
25.0079
-0.117562
0.241261
-0.116757
-0.112225
-0.111323
25.0505
-0.114553
0.247221
-0.113401
-0.109469
-0.108858
25.0768
-0.111339
0.250958
-0.109781
-0.107006
-0.105065
25.0953
-0.41554
0.252956
25.108
-0.400241
0.254206
25.1165
-0.388327
0.255178
25.1229
-0.382793
0.256711
25.1278
-0.378719
0.25788
25.1314
-0.375091
0.259156
25.1342
-0.371996
0.259886
25.1356
-0.369967
0.260903
25.1364
-0.368603
0.261979
25.1374
-0.368583
0.263124
25.1371
-0.36781
0.264307
25.1368
-0.36849
0.265497
25.1368
-0.369428
0.266405
25.1359
-0.370265
0.267721
25.1347
-0.371668
0.268621
25.1339
-0.373159
0.269307
25.1332
-0.374937
0.269699
25.1327
-0.376804
0.269725
25.1331
-0.378756
0.269349
-0.380498
0.267941
24.9964
0.00746613
0.00203969
24.9898
0.0186891
0.00427508
24.9784
0.0310354
0.00695789
24.9617
0.0438545
0.0103688
24.9384
0.058262
0.0148662
24.9051
0.0759337
0.020954
24.8602
0.0962829
0.0293138
24.8022
0.119861
0.0408154
24.7337
0.13789
0.0566996
6.14245
0.0372717
0.0785028
0.0519919
0.0370161
0.0513845
6.16231
6.14268
6.16184
-0.0114147
6.1253
0.0157129
0.0173054
-0.015234
-6.11348
6.10172
-0.0353404
0.0230617
-0.0192807
-6.10588
6.09844
0.0180652
0.0292132
-0.0233966
-6.11395
6.14584
-0.258649
0.0354339
-0.0265034
-6.16399
6.17778
-0.155506
0.0400979
-0.0286429
-6.19081
6.20152
-0.142536
0.0432666
-0.0302444
-6.2123
6.22662
-0.144467
0.0456898
-0.0314399
-6.23933
6.24659
-0.140858
0.0475283
-0.0322807
-6.25243
6.25768
-0.136265
0.0487886
-0.0328428
-6.26145
6.26544
-0.132094
0.0496359
25.1015
-0.144789
0.277471
-0.144984
-0.143874
-0.141424
-6.26921
-6.27291
-6.26871
-6.27231
25.1076
-0.546256
0.277434
25.1111
-0.531203
0.277506
25.1143
-0.526749
0.279429
25.1159
-0.522138
0.281262
25.1157
-0.517905
0.283408
25.115
-0.515087
0.285022
25.1133
-0.512823
0.286858
25.1104
-0.511258
0.288645
25.1062
-0.510847
0.290353
25.1015
-0.510507
0.29194
25.0959
-0.511106
0.293364
25.0893
-0.511685
0.294299
25.0823
-0.512937
0.295483
25.0748
-0.514268
0.295982
25.0671
-0.51597
0.296178
25.059
-0.517252
0.295783
25.0511
-0.519181
0.294821
25.0447
-0.521866
0.293195
-0.523594
0.290286
24.9981
0.00734274
0.00181082
24.9927
0.0221691
0.00380046
24.9829
0.0377072
0.0061802
24.968
0.0542012
0.0092061
24.9455
0.0740377
0.0132154
24.9131
0.0991954
0.0184321
24.8643
0.131908
0.0263071
24.7915
0.173913
0.0370057
6.17302
0.223469
0.0523483
6.16623
6.17352
6.16655
-0.00776106
6.15796
0.0482612
0.0118074
-0.0110493
6.13212
0.0168389
-6.16054
0.0192224
0.0110575
0.0195268
0.010756
-0.0379172
-0.0152738
-6.07984
6.04705
0.0234149
-0.00305983
0.00259911
-0.00300926
0.00246657
0.025699
-0.0203083
-6.04577
6.05953
0.0311901
0.051601
-0.0411905
0.0511615
-0.0410068
-0.045047
-0.0255887
-6.09985
6.14075
0.0390828
-0.0514815
-0.129744
-0.0521996
-0.129256
0.308452
-0.0284097
-6.17116
6.18206
0.0432349
-0.0501984
-0.0540795
-0.0509755
-0.0533479
0.182934
-0.0299908
-6.19481
6.20844
0.0454128
-0.0510137
-0.0506172
-0.0514437
-0.0501204
0.174188
-0.0311679
-6.22194
6.23385
0.0470919
-0.0496135
-0.0494932
-0.0496008
-0.049427
0.170414
-0.0320653
-6.2436
6.25093
0.0483705
-0.0469658
-0.0467305
-0.0468702
-0.0470187
0.164069
-0.0327864
-6.25749
6.26183
0.0493032
-0.0446812
-0.0443961
-0.044216
-0.0448607
0.157373
-0.0334269
-6.26588
6.26791
0.050016
-0.0426007
-0.042332
-0.0419381
-0.0427894
0.151074
-6.27018
-0.0339872
6.27193
-0.163328
0.0507908
25.0455
-0.648338
0.275877
-6.2733
-6.26676
-6.27319
-6.26661
25.0202
-0.640409
0.273968
24.9934
-0.634576
0.273007
24.9668
-0.629566
0.2716
24.9417
-0.626361
0.270409
24.9173
-0.624074
0.269685
24.8939
-0.622352
0.268677
24.871
-0.621411
0.268093
24.8482
-0.621163
0.267596
24.8258
-0.621624
0.267072
24.8039
-0.622682
0.266181
24.7822
-0.624076
0.265559
24.7607
-0.625517
0.264278
24.7399
-0.627274
0.262568
24.7196
-0.628863
0.260334
24.7005
-0.630489
0.257419
24.6827
-0.632318
0.25369
24.6669
-0.634947
0.249056
-0.63932
0.243108
25.0019
0.00397495
0.00151194
24.9995
0.0229882
0.00319685
24.9916
0.0429589
0.00517672
24.9794
0.0625812
0.00766203
24.9618
0.0862482
0.0109229
24.9357
0.11813
0.0148332
24.8933
0.163444
0.021437
24.8222
0.229902
0.0299521
6.17269
0.334439
0.0423718
6.17171
6.17306
6.17183
-0.00610822
-0.0631219
6.14739
0.0849985
0.00950742
-0.00199804
-0.018794
-1.52817
1.52298
0.0233364
0.00264958
-0.0029622
-0.0175291
-1.50484
1.49237
0.0291991
0.00378548
-0.00442455
-1.46971
0.0531112
1.47964
-0.0641828
0.00561754
-0.00623637
-1.52891
0.154138
1.54035
-0.167172
0.00788911
-0.00709914
-1.53727
0.0606395
-0.0644306
1.53951
0.00867712
-1.5492
-0.00772153
0.0588193
-0.0621718
0.00830979
1.55197
-0.00801462
0.0556303
-1.55756
1.55902
-0.0570016
0.00793463
-0.00813202
0.0511518
-1.56211
1.56274
-0.0514962
0.00785402
-0.00820514
0.0480377
-1.56368
1.56384
-0.0480763
0.00808785
-0.00827472
0.0454005
-1.56338
1.56297
-0.0452896
0.00856963
-1.55698
-0.0308249
0.173262
6.17028
-0.154025
0.0391058
-1.54429
-1.55598
-1.54055
23.8378
-0.74116
0.138931
-6.10813
-5.80848
-6.10428
-5.79798
23.8454
-0.721319
0.137205
23.8527
-0.714521
0.135312
23.861
-0.708876
0.132096
23.8703
-0.704431
0.128611
23.8803
-0.700754
0.125427
23.8914
-0.69778
0.121912
23.9033
-0.695552
0.118813
23.9158
-0.694114
0.115907
23.9286
-0.693332
0.113151
23.9416
-0.693031
0.110243
23.9544
-0.693108
0.107807
23.9672
-0.693292
0.105021
23.9798
-0.69346
0.102055
23.9922
-0.693509
0.0987643
24.0045
-0.693384
0.0950006
24.0168
-0.693079
0.0905217
24.0287
-0.692627
0.0848983
-0.692052
0.0772229
25.0089
0.00268879
0.00124844
25.0096
0.0210456
0.00252884
25.0062
0.0444187
0.00401892
24.9994
0.0665355
0.00583454
24.9893
0.0922812
0.00812499
24.9756
0.126834
0.0105921
24.956
0.175599
0.0149633
24.9254
0.250435
0.0199654
6.21377
0.374815
0.0266965
6.22167
6.21381
6.22179
-0.00362692
-0.102877
6.19826
0.116314
0.00569383
-0.00110113
-0.0383931
-1.54209
1.53591
0.0442024
0.00146619
-0.00143775
-0.0808134
-1.50594
1.48747
0.0988791
0.00185372
-0.000198091
0.00451959
-0.0747853
0.0750313
-0.00477121
0.000204476
0.00611742
-0.247885
0.0205808
-0.0312458
-0.000762281
0.253192
-1.11526
0.0120967
0.0465584
-0.0670129
0.000469446
1.12315
0.00952772
0.0313583
-1.1463
1.1536
-0.0450038
-0.00317554
0.00850344
0.0300086
-1.18726
1.20114
-0.0461194
-0.00626624
0.00833628
0.0302118
-1.24253
1.25645
-0.044158
-0.0083124
0.0081325
0.0332961
-1.29519
1.30874
-0.0453764
-0.00960518
-1.37056
0.0303527
0.173495
5.77985
-0.21133
-0.0379262
-1.48773
-1.38376
-1.49239
24.078
-0.676746
-0.218948
-5.84611
-6.1671
-5.85355
-6.17078
24.11
-0.649447
-0.218907
24.1383
-0.639676
-0.21797
24.1645
-0.632559
-0.216881
24.1886
-0.626787
-0.215357
24.2115
-0.622624
-0.213312
24.2338
-0.619985
-0.210837
24.2561
-0.618441
-0.208034
24.2784
-0.617767
-0.20499
24.3006
-0.617669
-0.201773
24.3226
-0.618097
-0.198476
24.3444
-0.618958
-0.195138
24.366
-0.619968
-0.19192
24.387
-0.620661
-0.18885
24.4073
-0.621081
-0.186072
24.4267
-0.621127
-0.183752
24.4453
-0.620694
-0.182207
24.4628
-0.619249
-0.18181
-0.615584
-0.18311
25.0083
-0.00248586
0.000903327
25.0155
0.0130585
0.00181909
25.0222
0.0363586
0.00280027
25.0261
0.0607943
0.00389158
25.0254
0.0905522
0.00511736
25.0297
0.119716
0.00621211
25.0415
0.160072
0.00781573
25.0694
0.218151
0.00884012
6.27581
0.307071
0.00894888
6.28813
6.27709
6.29134
-0.000883481
-0.107982
6.28316
0.100127
0.0013997
-8.65407e-05
-0.0436412
-1.57774
1.5794
0.0419578
0.000112405
0.000502445
-0.0806465
-1.59977
1.61632
0.0641571
-0.000577752
0.00225913
-0.0263254
-1.7126
1.75082
0.0585258
-0.00171517
-0.0217401
-0.0272624
-0.0220148
0.00472547
0.112792
-1.71107
1.67971
-0.0804557
-0.00575871
0.107079
-1.60881
0.00566551
1.59766
-0.0945832
-0.00703879
0.00642276
0.0748729
-1.58281
-0.00745854
1.58073
-0.0717596
0.00682189
0.0545067
-1.57762
1.57615
-0.0520767
-0.00777321
0.00703118
0.0562537
-1.57528
1.57382
-0.0537591
-0.00806659
0.00720465
0.0503958
-1.57293
1.57227
-0.0485711
-0.00837065
0.00732177
0.0467481
-1.5695
1.56982
-0.0457693
-0.00862639
-1.56998
0.0302917
0.179007
6.2748
-0.158628
-0.0443823
-1.57004
-1.57022
-1.57085
25.0903
-0.529482
-0.259783
-6.27737
-6.26977
-6.28358
-6.27558
25.0906
-0.518931
-0.260197
25.0874
-0.50591
-0.259879
25.0835
-0.497846
-0.259859
25.0793
-0.491486
-0.259871
25.0756
-0.487534
-0.259795
25.0721
-0.48473
-0.259694
25.0689
-0.483044
-0.25963
25.0661
-0.482194
-0.259633
25.0635
-0.481704
-0.259724
25.0612
-0.481824
-0.259923
25.0597
-0.482451
-0.260462
25.0584
-0.48308
-0.260645
25.057
-0.483048
-0.26118
25.0565
-0.483574
-0.261856
25.0565
-0.483278
-0.262812
25.057
-0.482408
-0.264184
25.0581
-0.480331
-0.26612
-0.477457
-0.268516
25.007
-0.0072137
0.000583644
25.0173
0.00228609
0.00112939
25.0316
0.0213367
0.00163246
25.0402
0.0513846
0.00204092
25.0579
0.0719146
0.00226069
25.0813
0.0954464
0.00210272
25.1191
0.121992
0.00120071
25.1842
0.153792
-0.00115086
6.32974
0.193934
-0.00622347
6.31904
6.33398
6.31777
-0.0850092
0.00139682
6.34803
0.0674965
-0.00214171
-0.0325821
0.0034924
6.42161
0.0856677
-0.00502374
-0.0304962
-0.032673
-0.0294363
-6.38057
-0.0287745
0.00740942
6.49212
0.0789963
-0.0106428
-0.0282636
-0.0276302
-0.0303573
-6.45289
-0.00877077
0.013159
-6.54016
6.49932
-0.0602884
-0.019597
0.0634202
-0.00995939
0.0627579
0.0358954
0.0199716
-6.49208
6.47374
-0.146617
-0.0297262
0.0523356
0.0350234
0.0513729
0.0590159
-6.45023
0.0249762
6.40691
-0.185569
-0.0371155
0.0580849
0.0624397
0.0615009
0.0567929
0.0279004
-6.36703
6.33936
-0.180104
-0.041604
0.0548989
0.055806
0.0540034
0.0466684
0.0298971
-6.32542
6.31807
-0.16219
-0.0446573
0.0460668
0.0459805
0.0455376
0.0454057
0.0312096
-6.31343
6.30513
-0.157866
-0.0466373
0.0458868
0.044867
0.0453593
0.0444732
0.0318955
-6.29614
6.28703
-0.147024
-0.0477501
0.0419323
0.0440365
0.0414984
0.0393018
0.0322503
-6.27958
6.27188
-0.129353
-0.0483003
0.0362844
0.0399108
0.0375882
0.139587
-6.27058
0.0326392
6.27117
-0.124238
-0.0485873
25.072
-0.389841
-0.265985
-6.26983
-6.26787
-6.2704
-6.2676
25.0671
-0.37943
-0.264322
25.0647
-0.369902
-0.262822
25.0627
-0.362729
-0.261944
25.0618
-0.357729
-0.261159
25.0606
-0.35395
-0.260364
25.0598
-0.351812
-0.259587
25.0593
-0.350591
-0.258858
25.0585
-0.349591
-0.2582
25.0581
-0.349616
-0.257631
25.0574
-0.349497