/*--------------------------------*- C++ -*----------------------------------*\
| =========                 |                                                 |
| \\      /  F ield         | OpenFOAM: The Open Source CFD Toolbox           |
|  \\    /   O peration     | Version:  2306                                  |
|   \\  /    A nd           | Website:  www.openfoam.com                      |
|    \\/     M anipulation  |                                                 |
\*---------------------------------------------------------------------------*/
FoamFile
{
    version     2.0;
    format      ascii;
    arch        "LSB;label=32;scalar=64";
    class       volVectorField;
    location    "2";
    object      U;
}
// * * * * * * * * * * * * * * * * * * * * * * * * * * * * * * * * * * * * * //

dimensions      [0 1 -1 0 0 0 0];

internalField   nonuniform List<vector> 
111542
(
(99.9932 0.00584692 0.00243624)
(99.9706 0.0118426 0.00521125)
(99.9286 0.0179446 0.00838528)
(99.8661 0.0242966 0.0123779)
(99.7818 0.0306422 0.0175448)
(99.6737 0.0362064 0.0243204)
(99.5412 0.0391269 0.0329749)
(99.3864 0.0364253 0.0440278)
(99.2188 0.0234376 0.058029)
(99.0585 -0.00630409 0.0750751)
(98.9386 -0.0586001 0.0947711)
(98.8997 -0.131207 0.116305)
(98.968 -0.205991 0.138816)
(99.1345 -0.263142 0.160303)
(99.3539 -0.291689 0.179166)
(99.5769 -0.301093 0.19493)
(99.7758 -0.300384 0.20739)
(99.9429 -0.29434 0.216914)
(100.079 -0.285887 0.223862)
(100.188 -0.276998 0.228795)
(100.273 -0.268971 0.231986)
(100.339 -0.262071 0.234024)
(100.389 -0.256165 0.235542)
(100.428 -0.251714 0.236609)
(100.459 -0.248584 0.237469)
(100.484 -0.246355 0.238466)
(100.504 -0.245147 0.239457)
(100.52 -0.244818 0.240498)
(100.533 -0.245034 0.24174)
(100.543 -0.245633 0.243145)
(100.55 -0.246536 0.244618)
(100.556 -0.247732 0.246024)
(100.56 -0.24902 0.24744)
(100.564 -0.250339 0.24881)
(100.566 -0.251684 0.250036)
(100.57 -0.253074 0.251016)
(100.573 -0.254572 0.251606)
(100.578 -0.256048 0.251885)
(100.585 -0.257532 0.251831)
(100.599 -0.259255 0.251471)
(99.9935 0.017405 0.00239478)
(99.9713 0.0351885 0.00505914)
(99.9299 0.0536817 0.00822058)
(99.8679 0.0732365 0.0121925)
(99.783 0.0932598 0.0173242)
(99.6718 0.111677 0.0240437)
(99.5312 0.123573 0.0328127)
(99.3607 0.120121 0.044186)
(99.1665 0.0866415 0.0587019)
(98.9673 0.00194385 0.0766142)
(98.8042 -0.151589 0.0977772)
(98.7437 -0.367865 0.120424)
(98.8303 -0.594622 0.144713)
(99.0424 -0.759337 0.168)
(99.3071 -0.842278 0.188079)
(99.5587 -0.872813 0.204299)
(99.7725 -0.873574 0.216901)
(99.9467 -0.858213 0.226382)
(100.085 -0.835813 0.23324)
(100.193 -0.811455 0.23801)
(100.276 -0.788412 0.241242)
(100.338 -0.769089 0.243589)
(100.385 -0.753854 0.245479)
(100.421 -0.74253 0.247052)
(100.449 -0.733284 0.248457)
(100.472 -0.725053 0.24986)
(100.491 -0.718339 0.251306)
(100.506 -0.713357 0.25282)
(100.518 -0.709839 0.254409)
(100.527 -0.707607 0.256032)
(100.535 -0.706576 0.25763)
(100.54 -0.706692 0.259146)
(100.544 -0.707655 0.260559)
(100.548 -0.709321 0.261822)
(100.55 -0.71162 0.262869)
(100.553 -0.714517 0.263631)
(100.556 -0.718017 0.264039)
(100.56 -0.721892 0.264073)
(100.566 -0.726071 0.263725)
(100.577 -0.730557 0.263111)
(99.9939 0.0284932 0.0022865)
(99.9728 0.0576947 0.00482805)
(99.9331 0.0888121 0.00787311)
(99.8727 0.122664 0.0117151)
(99.7877 0.158975 0.0167151)
(99.6722 0.195426 0.0233442)
(99.5184 0.22572 0.0321791)
(99.3189 0.236224 0.0439121)
(99.0709 0.200248 0.0593043)
(98.7915 0.0691585 0.0790106)
(98.5398 -0.266793 0.103409)
(98.4277 -0.732152 0.131723)
(98.5516 -1.15518 0.15831)
(98.8584 -1.39964 0.183505)
(99.2055 -1.50042 0.204425)
(99.5066 -1.53031 0.220623)
(99.7483 -1.51587 0.232865)
(99.9362 -1.48017 0.241868)
(100.079 -1.43732 0.248231)
(100.186 -1.39346 0.252566)
(100.265 -1.35377 0.255652)
(100.321 -1.31757 0.258258)
(100.362 -1.29472 0.260744)
(100.394 -1.28383 0.263259)
(100.421 -1.27744 0.265827)
(100.443 -1.27215 0.268405)
(100.46 -1.26779 0.270928)
(100.472 -1.26454 0.273322)
(100.482 -1.26227 0.275519)
(100.489 -1.2609 0.277467)
(100.493 -1.26041 0.27913)
(100.496 -1.2608 0.28049)
(100.496 -1.26198 0.281538)
(100.496 -1.26387 0.282267)
(100.494 -1.26642 0.28265)
(100.492 -1.26961 0.282653)
(100.49 -1.27346 0.282226)
(100.489 -1.27786 0.281341)
(100.49 -1.28267 0.280029)
(100.495 -1.28741 0.278536)
(99.9945 0.0385926 0.00211653)
(99.9756 0.0785107 0.00447142)
(99.9396 0.122034 0.00729943)
(99.8835 0.171149 0.0108858)
(99.802 0.227022 0.0155951)
(99.6855 0.289134 0.0219219)
(99.5198 0.353279 0.0305261)
(99.2842 0.406933 0.0422577)
(98.9496 0.420443 0.0581882)
(98.4515 0.219455 0.0796429)
(98.194 0.0393872 0.0863512)
(97.8464 -0.618958 0.102171)
(97.9099 -1.42635 0.116561)
(98.3882 -1.94873 0.129015)
(98.8926 -2.10621 0.14121)
(99.2882 -2.14083 0.14968)
(99.6023 -2.10597 0.155586)
(99.8361 -2.03791 0.15964)
(100.006 -1.96323 0.162371)
(100.131 -1.89485 0.164291)
(100.289 -1.95507 0.272453)
(100.328 -1.88588 0.277421)
(100.341 -1.83619 0.281116)
(100.351 -1.80608 0.284516)
(100.363 -1.78646 0.288319)
(100.371 -1.77394 0.292459)
(100.375 -1.76701 0.296612)
(100.372 -1.76412 0.300466)
(100.365 -1.764 0.303778)
(100.354 -1.76586 0.306384)
(100.339 -1.76917 0.308194)
(100.321 -1.77354 0.309188)
(100.3 -1.77868 0.309389)
(100.276 -1.78434 0.308836)
(100.25 -1.79038 0.307565)
(100.223 -1.79674 0.305601)
(100.196 -1.80347 0.302945)
(100.169 -1.81064 0.29961)
(100.144 -1.8182 0.295685)
(100.116 -1.82512 0.291593)
(99.9956 0.0469375 0.00188316)
(99.9803 0.0959803 0.0039785)
(99.9508 0.150715 0.00648464)
(99.9037 0.214861 0.00965748)
(99.8327 0.29218 0.0138344)
(99.7264 0.386372 0.0194748)
(99.5651 0.50025 0.0272183)
(99.3163 0.632542 0.0379137)
(98.8748 0.770028 0.0526804)
(98.531 0.777022 0.0580566)
(97.7182 0.387338 0.0717101)
(96.9107 -0.68033 0.0894648)
(96.9985 -2.33999 0.104405)
(98.1203 -2.95873 0.11551)
(98.8497 -3.00045 0.12871)
(99.3229 -2.95879 0.136328)
(99.6803 -2.84144 0.141118)
(99.916 -2.71025 0.144552)
(100.072 -2.58982 0.147516)
(100.169 -2.49139 0.150819)
(100.231 -2.44219 0.158336)
(100.14 -2.55876 0.300988)
(100.016 -2.54539 0.304253)
(99.8995 -2.51965 0.305461)
(99.7963 -2.48982 0.306782)
(99.6983 -2.46378 0.308781)
(99.603 -2.44268 0.311124)
(99.5104 -2.42546 0.313211)
(99.4205 -2.41141 0.314455)
(99.3327 -2.40014 0.314417)
(99.2466 -2.39132 0.312852)
(99.1622 -2.38458 0.309713)
(99.0795 -2.37954 0.305089)
(98.9988 -2.37586 0.299145)
(98.9204 -2.37328 0.292084)
(98.8448 -2.37165 0.284086)
(98.7729 -2.37098 0.275285)
(98.7056 -2.37162 0.265793)
(98.6452 -2.37448 0.25576)
(98.5861 -2.38188 0.245693)
(99.9971 0.0525847 0.00158979)
(99.987 0.108045 0.00335342)
(99.9673 0.171223 0.00543413)
(99.935 0.247688 0.0080302)
(99.8846 0.344283 0.0114023)
(99.8057 0.470339 0.015896)
(99.6792 0.639554 0.0219782)
(99.4683 0.872338 0.030232)
(99.0491 1.2004 0.0413548)
(98.64 1.36251 0.0457563)
(97.6851 1.50458 0.0440603)
(95.571 0.735191 0.0410835)
(94.3568 -3.41815 0.0562304)
(98.1467 -4.73286 0.0463474)
(98.6947 -3.95979 0.0524184)
(99.2927 -3.85917 0.0273533)
(99.6718 -3.62202 -0.00348503)
(99.8236 -3.39338 -0.0283027)
(99.8549 -3.21055 -0.0458027)
(99.7964 -3.04292 -0.0564705)
(98.5429 -2.87691 0.122621)
(95.1196 -2.50123 0.166495)
(95.19 -2.56632 0.154536)
(95.2769 -2.60037 0.144732)
(95.3509 -2.62052 0.13753)
(95.4142 -2.63716 0.132939)
(95.4734 -2.65179 0.130378)
(95.5305 -2.66382 0.128932)
(95.5853 -2.67313 0.127677)
(95.6375 -2.68 0.125868)
(95.687 -2.68481 0.123003)
(95.7341 -2.68791 0.118826)
(95.7789 -2.68964 0.113278)
(95.8221 -2.69025 0.106457)
(95.864 -2.68994 0.0985516)
(95.9054 -2.68886 0.0897644)
(95.9468 -2.68721 0.0802681)
(95.9888 -2.68539 0.0701569)
(96.0309 -2.68435 0.0594536)
(96.0798 -2.68647 0.0483555)
(99.999 0.0545713 0.00129444)
(99.9954 0.112556 0.00265796)
(99.9882 0.179597 0.00421787)
(99.9758 0.262524 0.00610222)
(99.9557 0.370373 0.00844848)
(99.923 0.516764 0.0114174)
(99.8695 0.723822 0.0151678)
(99.7807 1.03028 0.0197654)
(99.6088 1.50985 0.024993)
(99.3411 1.91095 0.0271345)
(98.6219 2.85005 0.0243366)
(95.4745 5.86152 0.0181237)
(77.0679 -4.25869 0.039835)
(102.654 -10.2859 0.022749)
(52.8978 -3.33959 -0.314561)
(74.4281 -4.12801 0.0815274)
(78.3488 -3.39541 0.114665)
(81.2635 -3.08452 0.125519)
(83.578 -2.92254 0.129086)
(85.5216 -2.86831 0.126195)
(93.1614 -3.73953 -0.112659)
(96.3879 -3.33571 -0.25351)
(96.5295 -3.21475 -0.254614)
(96.6838 -3.12816 -0.25583)
(96.8141 -3.06483 -0.258292)
(96.9263 -3.01563 -0.261321)
(97.0286 -2.97596 -0.263661)
(97.1231 -2.94316 -0.264425)
(97.21 -2.91535 -0.263243)
(97.2894 -2.89125 -0.260154)
(97.3619 -2.87001 -0.255469)
(97.4287 -2.85103 -0.249642)
(97.4905 -2.83389 -0.243152)
(97.5482 -2.81818 -0.236438)
(97.6027 -2.80354 -0.229865)
(97.6547 -2.78958 -0.223734)
(97.7048 -2.77591 -0.218335)
(97.7538 -2.76203 -0.213975)
(97.802 -2.74711 -0.21107)
(97.8622 -2.72901 -0.210385)
(100.001 0.0525314 0.00100608)
(100.005 0.108358 0.00196339)
(100.011 0.17337 0.00297746)
(100.021 0.254552 0.00409204)
(100.035 0.361136 0.00531418)
(100.057 0.506814 0.00659673)
(100.091 0.713097 0.00776618)
(100.154 1.01589 0.00835748)
(100.301 1.47752 0.00731532)
(100.35 1.88885 0.00679665)
(100.629 2.87561 0.0023467)
(102.465 5.4085 -0.00747957)
(111.265 3.86859 -0.047873)
(109.116 -6.80944 0.031533)
(102.794 -6.8195 -0.0257129)
(101.13 -5.00249 -0.0310573)
(100.676 -4.00725 -0.0264067)
(100.494 -3.46209 -0.023944)
(100.403 -3.14218 -0.0245707)
(100.336 -2.95309 -0.0278371)
(100.254 -2.73808 -0.134729)
(100.288 -2.31693 -0.269795)
(100.277 -2.21151 -0.273904)
(100.27 -2.14968 -0.275805)
(100.266 -2.11457 -0.277233)
(100.259 -2.0927 -0.278624)
(100.252 -2.07873 -0.279763)
(100.245 -2.07057 -0.280444)
(100.238 -2.06673 -0.280565)
(100.231 -2.06596 -0.280106)
(100.224 -2.06729 -0.279121)
(100.217 -2.06996 -0.277725)
(100.21 -2.07333 -0.276074)
(100.204 -2.07685 -0.27433)
(100.199 -2.08 -0.272653)
(100.195 -2.08229 -0.271195)
(100.192 -2.08324 -0.27012)
(100.191 -2.08222 -0.269602)
(100.194 -2.07831 -0.26981)
(100.204 -2.0697 -0.270738)
(100.003 0.0460711 0.000588084)
(100.013 0.0950506 0.001178)
(100.032 0.15213 0.00170846)
(100.063 0.223308 0.00211269)
(100.108 0.316145 0.00229045)
(100.176 0.440855 0.0020315)
(100.281 0.611666 0.000911325)
(100.449 0.848088 -0.00186078)
(100.768 1.17453 -0.0077428)
(100.994 1.41411 -0.0101424)
(101.852 1.86966 -0.0185893)
(103.478 1.76741 -0.0343003)
(105.275 -0.261037 -0.0534238)
(104.814 -2.86555 -0.0336232)
(103 -3.58906 -0.0513132)
(101.772 -3.3721 -0.0667096)
(101.134 -3.01949 -0.0768105)
(100.789 -2.71936 -0.0835363)
(100.589 -2.49197 -0.0882351)
(100.461 -2.32094 -0.0919675)
(100.373 -2.18498 -0.0962905)
(100.285 -1.89288 -0.257565)
(100.258 -1.8525 -0.25897)
(100.242 -1.82273 -0.25955)
(100.234 -1.80231 -0.260083)
(100.229 -1.78762 -0.260626)
(100.226 -1.77649 -0.260991)
(100.223 -1.76813 -0.26106)
(100.22 -1.76202 -0.260815)
(100.217 -1.75758 -0.26029)
(100.214 -1.75426 -0.259555)
(100.21 -1.75164 -0.258695)
(100.207 -1.74931 -0.257793)
(100.204 -1.7469 -0.256919)
(100.201 -1.74404 -0.256139)
(100.199 -1.74037 -0.255516)
(100.199 -1.73552 -0.255131)
(100.201 -1.72913 -0.255081)
(100.207 -1.72095 -0.255496)
(100.224 -1.7112 -0.25655)
(100.004 0.035687 0.000366331)
(100.02 0.0737438 0.000656495)
(100.05 0.117944 0.000751961)
(100.096 0.172636 0.000544732)
(100.165 0.242881 -0.000132194)
(100.266 0.334542 -0.00160575)
(100.413 0.453904 -0.00442684)
(100.633 0.605395 -0.00950198)
(100.969 0.785101 -0.0182985)
(101.458 0.868134 -0.0327004)
(102.101 0.767646 -0.05453)
(102.781 0.233134 -0.0845737)
(103.14 -0.764704 -0.118275)
(102.889 -1.60447 -0.148655)
(102.239 -1.91645 -0.178839)
(101.601 -1.92495 -0.203262)
(101.148 -1.84 -0.220172)
(100.854 -1.73412 -0.231205)
(100.66 -1.63207 -0.238208)
(100.526 -1.5404 -0.242452)
(100.435 -1.45986 -0.244886)
(100.377 -1.38755 -0.24627)
(100.339 -1.32881 -0.246919)
(100.314 -1.28104 -0.247224)
(100.296 -1.24355 -0.247417)
(100.283 -1.21476 -0.247592)
(100.273 -1.19279 -0.247795)
(100.264 -1.17627 -0.248056)
(100.256 -1.16415 -0.248392)
(100.248 -1.15555 -0.248814)
(100.241 -1.14966 -0.249329)
(100.235 -1.14578 -0.249937)
(100.228 -1.14331 -0.250636)
(100.223 -1.14169 -0.251418)
(100.219 -1.14038 -0.252284)
(100.215 -1.13894 -0.253237)
(100.214 -1.13697 -0.254299)
(100.215 -1.13416 -0.255511)
(100.219 -1.13036 -0.256944)
(100.228 -1.12579 -0.258698)
(100.006 0.0226252 0.000176337)
(100.025 0.0466232 0.000214384)
(100.062 0.0744659 -8.38296e-07)
(100.119 0.108505 -0.000619074)
(100.202 0.151647 -0.00187709)
(100.32 0.206313 -0.00413176)
(100.486 0.273963 -0.00796337)
(100.716 0.352059 -0.0141934)
(101.027 0.427547 -0.0239622)
(101.429 0.460867 -0.0385799)
(101.896 0.395415 -0.0592258)
(102.327 0.155873 -0.0863363)
(102.549 -0.268596 -0.117429)
(102.43 -0.702769 -0.147929)
(102.036 -0.951141 -0.175867)
(101.571 -1.0136 -0.19855)
(101.187 -0.986432 -0.215349)
(100.911 -0.932528 -0.226854)
(100.716 -0.875582 -0.234374)
(100.573 -0.822521 -0.238976)
(100.469 -0.776279 -0.241493)
(100.395 -0.739973 -0.242608)
(100.342 -0.713875 -0.242895)
(100.304 -0.695946 -0.24268)
(100.276 -0.684289 -0.242218)
(100.256 -0.677496 -0.241704)
(100.242 -0.674269 -0.241268)
(100.23 -0.673568 -0.240979)
(100.221 -0.674654 -0.24086)
(100.213 -0.676981 -0.240913)
(100.207 -0.680082 -0.241124)
(100.201 -0.683579 -0.241472)
(100.197 -0.687149 -0.241925)
(100.193 -0.69056 -0.242452)
(100.191 -0.693316 -0.243061)
(100.19 -0.695367 -0.243713)
(100.191 -0.696581 -0.244404)
(100.194 -0.696835 -0.245168)
(100.201 -0.6961 -0.246092)
(100.217 -0.694349 -0.247387)
(100.006 0.00774695 6.31972e-05)
(100.027 0.0159124 1.04379e-05)
(100.067 0.0254223 -0.000402829)
(100.13 0.03691 -0.00117423)
(100.22 0.0514188 -0.00273658)
(100.345 0.0695032 -0.00537822)
(100.517 0.0911607 -0.00971226)
(100.746 0.11489 -0.0164382)
(101.038 0.135524 -0.0266758)
(101.389 0.140329 -0.0412039)
(101.763 0.109194 -0.0607605)
(102.085 0.0213189 -0.0853353)
(102.249 -0.119693 -0.113415)
(102.179 -0.266029 -0.142127)
(101.9 -0.359596 -0.168097)
(101.534 -0.389399 -0.189758)
(101.194 -0.38427 -0.206441)
(100.929 -0.368721 -0.218133)
(100.733 -0.35195 -0.22588)
(100.586 -0.336278 -0.230635)
(100.478 -0.322493 -0.233232)
(100.399 -0.311145 -0.23433)
(100.342 -0.301802 -0.234472)
(100.302 -0.293829 -0.233994)
(100.274 -0.286625 -0.233323)
(100.254 -0.279967 -0.232682)
(100.239 -0.273735 -0.232193)
(100.227 -0.26786 -0.23193)
(100.217 -0.262334 -0.231923)
(100.21 -0.257173 -0.232174)
(100.203 -0.252384 -0.232658)
(100.197 -0.247961 -0.233333)
(100.192 -0.243893 -0.234139)
(100.188 -0.240187 -0.234977)
(100.185 -0.236587 -0.236008)
(100.183 -0.23316 -0.23707)
(100.184 -0.229892 -0.238116)
(100.186 -0.226758 -0.239173)
(100.192 -0.223859 -0.24032)
(100.203 -0.2217 -0.241778)
(99.9935 0.00580586 0.00719373)
(99.9713 0.0116914 0.015221)
(99.9302 0.0177822 0.0246139)
(99.8694 0.0241162 0.0363868)
(99.7875 0.030429 0.0515469)
(99.6825 0.0359423 0.0712919)
(99.5537 0.0389804 0.0967058)
(99.4035 0.0365993 0.129253)
(99.2409 0.0241253 0.170316)
(99.0852 -0.00477422 0.220318)
(98.9684 -0.0557045 0.278559)
(98.9309 -0.127164 0.342597)
(98.9978 -0.199846 0.408605)
(99.1599 -0.254832 0.471234)
(99.3741 -0.282033 0.526)
(99.5928 -0.29084 0.571386)
(99.789 -0.289898 0.60719)
(99.9552 -0.283842 0.634392)
(100.092 -0.275461 0.654138)
(100.201 -0.266772 0.667879)
(100.287 -0.258666 0.676752)
(100.354 -0.251443 0.682309)
(100.405 -0.245162 0.686026)
(100.443 -0.240205 0.688441)
(100.473 -0.236527 0.69009)
(100.496 -0.233894 0.691554)
(100.513 -0.232228 0.692837)
(100.526 -0.231421 0.694186)
(100.536 -0.231289 0.695917)
(100.542 -0.231668 0.698054)
(100.547 -0.232436 0.700494)
(100.55 -0.233507 0.703066)
(100.552 -0.234784 0.70582)
(100.554 -0.236199 0.708616)
(100.556 -0.237707 0.71123)
(100.558 -0.239295 0.713428)
(100.562 -0.240953 0.714928)
(100.568 -0.242649 0.715699)
(100.576 -0.244404 0.715552)
(100.591 -0.246351 0.714269)
(99.9937 0.0172564 0.00704847)
(99.972 0.0348085 0.0148516)
(99.9316 0.0531763 0.0241327)
(99.8713 0.0725861 0.0357879)
(99.7889 0.0924516 0.0508377)
(99.6809 0.110744 0.0705338)
(99.5445 0.122846 0.0962933)
(99.3792 0.120097 0.129777)
(99.1908 0.088012 0.172593)
(98.9974 0.00592171 0.225716)
(98.8382 -0.143269 0.28886)
(98.7802 -0.352597 0.359118)
(98.8662 -0.574139 0.432009)
(99.0732 -0.735956 0.500413)
(99.3312 -0.816558 0.558497)
(99.5771 -0.846375 0.605116)
(99.7871 -0.847153 0.641109)
(99.9593 -0.832203 0.667941)
(100.097 -0.810374 0.687097)
(100.205 -0.786625 0.700072)
(100.287 -0.763709 0.708377)
(100.35 -0.74388 0.713919)
(100.398 -0.72776 0.717891)
(100.433 -0.715078 0.720715)
(100.46 -0.704233 0.722735)
(100.481 -0.694537 0.724408)
(100.498 -0.686414 0.726063)
(100.51 -0.68021 0.727947)
(100.52 -0.675853 0.730199)
(100.527 -0.673178 0.732817)
(100.532 -0.672031 0.73572)
(100.536 -0.672241 0.738796)
(100.538 -0.673574 0.74195)
(100.54 -0.67585 0.745029)
(100.542 -0.678929 0.747836)
(100.544 -0.682695 0.75016)
(100.547 -0.68708 0.751785)
(100.552 -0.691966 0.752548)
(100.558 -0.697218 0.752277)
(100.571 -0.702647 0.750849)
(99.994 0.0282163 0.00672603)
(99.9735 0.0571119 0.0141795)
(99.9349 0.0879017 0.0231042)
(99.8762 0.121378 0.0343758)
(99.7938 0.157282 0.0490641)
(99.6817 0.19338 0.0685557)
(99.5327 0.223565 0.0945852)
(99.3394 0.234504 0.129267)
(99.0989 0.200008 0.174935)
(98.8279 0.0722999 0.233633)
(98.5844 -0.255898 0.306039)
(98.4754 -0.710661 0.389075)
(98.5955 -1.12375 0.473155)
(98.8945 -1.36291 0.550026)
(99.2322 -1.46174 0.612133)
(99.526 -1.49177 0.659741)
(99.7632 -1.47808 0.695354)
(99.9486 -1.44324 0.721106)
(100.09 -1.40098 0.738743)
(100.196 -1.35717 0.749915)
(100.273 -1.31614 0.75617)
(100.329 -1.27756 0.760454)
(100.37 -1.25305 0.764321)
(100.401 -1.24045 0.767814)
(100.427 -1.23187 0.770753)
(100.448 -1.22416 0.773305)
(100.463 -1.21752 0.775787)
(100.475 -1.2124 0.778417)
(100.483 -1.20883 0.781279)
(100.488 -1.2068 0.784366)
(100.491 -1.20621 0.787608)
(100.493 -1.207 0.790898)
(100.493 -1.20899 0.794105)
(100.491 -1.21202 0.797067)
(100.49 -1.21596 0.799594)
(100.487 -1.22075 0.801471)
(100.485 -1.22635 0.80247)
(100.484 -1.2327 0.802383)
(100.485 -1.2396 0.801077)
(100.49 -1.24633 0.798661)
(99.9947 0.0381919 0.00622166)
(99.9763 0.0776686 0.0131263)
(99.9414 0.120662 0.021418)
(99.887 0.16912 0.0319512)
(99.808 0.224192 0.0458176)
(99.6952 0.285372 0.0644938)
(99.5347 0.348521 0.0899901)
(99.3061 0.401294 0.124953)
(98.981 0.414386 0.172778)
(98.4957 0.216519 0.237601)
(98.2393 0.0335545 0.270461)
(97.8994 -0.627031 0.347357)
(97.9652 -1.4291 0.429471)
(98.4386 -1.95311 0.505988)
(98.9312 -2.11214 0.565853)
(99.3174 -2.15053 0.608904)
(99.6256 -2.11868 0.639994)
(99.8555 -2.05212 0.662249)
(100.023 -1.97725 0.677573)
(100.146 -1.90685 0.687751)
(100.29 -1.93094 0.812186)
(100.328 -1.85224 0.815487)
(100.34 -1.79605 0.817781)
(100.351 -1.76178 0.820423)
(100.365 -1.73874 0.823778)
(100.375 -1.72314 0.827692)
(100.38 -1.71365 0.831987)
(100.378 -1.70898 0.83653)
(100.372 -1.70803 0.841188)
(100.362 -1.71003 0.845821)
(100.347 -1.71435 0.850295)
(100.329 -1.72042 0.854466)
(100.307 -1.72775 0.858172)
(100.283 -1.73593 0.861215)
(100.256 -1.7447 0.863367)
(100.227 -1.75397 0.864365)
(100.197 -1.76378 0.863909)
(100.167 -1.77431 0.861695)
(100.139 -1.78556 0.857487)
(100.11 -1.79638 0.851313)
(99.9957 0.0464144 0.00552761)
(99.981 0.0948721 0.0116706)
(99.9524 0.148869 0.0190265)
(99.9069 0.21204 0.0283646)
(99.8383 0.288049 0.0407043)
(99.7354 0.38047 0.0574535)
(99.579 0.491948 0.0806055)
(99.3371 0.620985 0.112901)
(98.906 0.754009 0.158026)
(98.5652 0.755671 0.183874)
(97.7647 0.364508 0.250121)
(96.9697 -0.699049 0.336977)
(97.0632 -2.34185 0.436805)
(98.174 -2.958 0.52537)
(98.8834 -2.99853 0.583823)
(99.3431 -2.9639 0.615915)
(99.694 -2.85299 0.636206)
(99.9263 -2.72487 0.651224)
(100.079 -2.60367 0.663189)
(100.175 -2.50082 0.67361)
(100.237 -2.43829 0.684623)
(100.144 -2.55355 0.791589)
(100.018 -2.53687 0.790519)
(99.9015 -2.50623 0.786714)
(99.8018 -2.47115 0.782353)
(99.7081 -2.44002 0.778076)
(99.617 -2.41443 0.773845)
(99.5279 -2.3939 0.769626)
(99.4404 -2.37804 0.765472)
(99.3539 -2.3666 0.761447)
(99.268 -2.35911 0.75758)
(99.1828 -2.35488 0.753828)
(99.0984 -2.3532 0.750047)
(99.0153 -2.35342 0.745998)
(98.9338 -2.35505 0.741359)
(98.8544 -2.35781 0.73574)
(98.7778 -2.36176 0.728654)
(98.7053 -2.36738 0.719562)
(98.6395 -2.37585 0.707946)
(98.5757 -2.38985 0.693817)
(99.9972 0.0519991 0.00462975)
(99.9876 0.106734 0.0098042)
(99.9686 0.168975 0.0159211)
(99.9376 0.244165 0.0235827)
(99.8891 0.338954 0.0335941)
(99.813 0.462395 0.0470493)
(99.6902 0.627733 0.0654593)
(99.4843 0.854656 0.0908683)
(99.0722 1.17364 0.125909)
(98.6657 1.33144 0.147093)
(97.7173 1.4666 0.176802)
(95.6205 0.69096 0.235105)
(94.4228 -3.45041 0.340858)
(98.2291 -4.74045 0.450197)
(98.7631 -3.94352 0.514847)
(99.3553 -3.79981 0.539948)
(99.7369 -3.52067 0.543403)
(99.904 -3.27278 0.537669)
(99.9548 -3.08488 0.532717)
(99.906 -2.92172 0.53378)
(98.8048 -2.73495 0.566568)
(95.189 -2.39619 0.361111)
(95.2274 -2.48022 0.360118)
(95.2836 -2.52493 0.359269)
(95.3305 -2.54954 0.357496)
(95.3723 -2.56663 0.354571)
(95.4161 -2.57994 0.350312)
(95.4639 -2.59115 0.344836)
(95.5151 -2.60182 0.338573)
(95.5685 -2.61302 0.332043)
(95.6229 -2.62503 0.325652)
(95.6777 -2.63758 0.319625)
(95.7322 -2.65009 0.313916)
(95.7861 -2.66195 0.30832)
(95.8391 -2.67268 0.302494)
(95.8915 -2.68206 0.29596)
(95.9432 -2.69018 0.288087)
(95.9944 -2.69758 0.278025)
(96.0448 -2.70567 0.264541)
(96.1048 -2.71805 0.245658)
(99.999 0.0539731 0.00379178)
(99.9958 0.111159 0.00777894)
(99.9891 0.17714 0.0123669)
(99.9776 0.258595 0.0179392)
(99.9587 0.364311 0.0249385)
(99.9276 0.50753 0.0339082)
(99.8759 0.709748 0.0454705)
(99.7888 1.00871 0.0601107)
(99.6176 1.47644 0.0776433)
(99.3503 1.8707 0.0880498)
(98.6314 2.79538 0.0984745)
(95.4861 5.76668 0.11596)
(77.2222 -4.43191 0.224637)
(62.3512 -6.86743 -1.12631)
(70.833 -3.33121 -0.344006)
(73.0486 -2.18569 -0.368485)
(76.2875 -1.93684 -0.451264)
(79.8342 -2.04391 -0.532544)
(83.1941 -2.3211 -0.583249)
(92.033 -3.44064 -0.600352)
(96.1741 -3.32696 -0.639724)
(96.3203 -3.21238 -0.646842)
(96.4702 -3.13013 -0.646912)
(96.5889 -3.0695 -0.642539)
(96.688 -3.0222 -0.634647)
(96.7802 -2.98442 -0.623829)
(96.8706 -2.95425 -0.610996)
(96.9608 -2.93037 -0.597124)
(97.0513 -2.91166 -0.583041)
(97.142 -2.89709 -0.569397)
(97.2327 -2.88566 -0.556666)
(97.3224 -2.87647 -0.545156)
(97.4106 -2.86867 -0.535076)
(97.4965 -2.86156 -0.526569)
(97.5796 -2.85459 -0.519799)
(97.6596 -2.84727 -0.515091)
(97.7362 -2.83909 -0.513011)
(97.809 -2.82922 -0.514595)
(97.8923 -2.81559 -0.521615)
(100.001 0.0518082 0.00279434)
(100.005 0.106872 0.00559816)
(100.011 0.17086 0.00860697)
(100.022 0.250576 0.0119378)
(100.036 0.35501 0.015639)
(100.058 0.497474 0.0196348)
(100.092 0.698919 0.0235153)
(100.154 0.994425 0.0260924)
(100.294 1.44521 0.0244409)
(100.341 1.85016 0.0219152)
(100.611 2.82411 0.00848278)
(102.415 5.33563 -0.0373764)
(111.032 3.99909 -0.120346)
(109.044 -6.67198 -0.311521)
(102.746 -6.80979 -0.393703)
(101.109 -4.95783 -0.444544)
(100.677 -3.94417 -0.471866)
(100.513 -3.39377 -0.48725)
(100.434 -3.07694 -0.498122)
(100.375 -2.89515 -0.508347)
(100.283 -2.73015 -0.587384)
(100.313 -2.33465 -0.746109)
(100.303 -2.22479 -0.750542)
(100.293 -2.15948 -0.749727)
(100.282 -2.12167 -0.747394)
(100.27 -2.09814 -0.744548)
(100.257 -2.08397 -0.74122)
(100.245 -2.07719 -0.7376)
(100.235 -2.0762 -0.733996)
(100.225 -2.07943 -0.730669)
(100.216 -2.08553 -0.727828)
(100.209 -2.09338 -0.725633)
(100.203 -2.10201 -0.724197)
(100.198 -2.11064 -0.723562)
(100.195 -2.11861 -0.723805)
(100.193 -2.12534 -0.725024)
(100.193 -2.13026 -0.72743)
(100.195 -2.13265 -0.731367)
(100.199 -2.13135 -0.737297)
(100.212 -2.124 -0.745369)
(100.003 0.0454211 0.00173219)
(100.013 0.0937368 0.00343803)
(100.032 0.149901 0.00498764)
(100.063 0.219778 0.00621479)
(100.108 0.310731 0.00682768)
(100.175 0.432685 0.00623305)
(100.278 0.599513 0.00325385)
(100.442 0.830268 -0.004335)
(100.752 1.14883 -0.0207067)
(100.975 1.38424 -0.0323959)
(101.814 1.83255 -0.0733398)
(103.414 1.7293 -0.151277)
(105.183 -0.266895 -0.265174)
(104.732 -2.84352 -0.386155)
(102.955 -3.5849 -0.474152)
(101.747 -3.37487 -0.532939)
(101.12 -3.02889 -0.572134)
(100.783 -2.73348 -0.596874)
(100.589 -2.50837 -0.612036)
(100.464 -2.33771 -0.621573)
(100.377 -2.19648 -0.628203)
(100.288 -1.88252 -0.776802)
(100.263 -1.83793 -0.77447)
(100.247 -1.8059 -0.77066)
(100.239 -1.78386 -0.766716)
(100.233 -1.76782 -0.7629)
(100.23 -1.7558 -0.759192)
(100.227 -1.7471 -0.755639)
(100.224 -1.74116 -0.752315)
(100.222 -1.73733 -0.749267)
(100.219 -1.73497 -0.746535)
(100.216 -1.73353 -0.744154)
(100.213 -1.73246 -0.742162)
(100.21 -1.73129 -0.740586)
(100.208 -1.72954 -0.739508)
(100.207 -1.72676 -0.739049)
(100.206 -1.72254 -0.739409)
(100.208 -1.71641 -0.740871)
(100.213 -1.70806 -0.743779)
(100.227 -1.69785 -0.748403)
(100.004 0.0352677 0.000997757)
(100.02 0.072768 0.00179177)
(100.049 0.11623 0.00208308)
(100.096 0.169937 0.0015532)
(100.164 0.238747 -0.000333656)
(100.262 0.328406 -0.00450634)
(100.407 0.445039 -0.0125294)
(100.621 0.592957 -0.0269964)
(100.949 0.768257 -0.0521149)
(101.424 0.850113 -0.0938023)
(102.051 0.753108 -0.158072)
(102.716 0.231566 -0.248809)
(103.068 -0.740751 -0.35745)
(102.824 -1.56664 -0.471787)
(102.19 -1.87778 -0.567611)
(101.567 -1.88732 -0.637158)
(101.125 -1.80436 -0.683688)
(100.839 -1.70094 -0.713262)
(100.648 -1.60088 -0.731196)
(100.516 -1.5103 -0.741058)
(100.427 -1.42988 -0.745189)
(100.369 -1.356 -0.745126)
(100.332 -1.29642 -0.743674)
(100.307 -1.24813 -0.741699)
(100.29 -1.2099 -0.739308)
(100.279 -1.18029 -0.736751)
(100.27 -1.15774 -0.734376)
(100.263 -1.14101 -0.732442)
(100.257 -1.1291 -0.731085)
(100.251 -1.12108 -0.730355)
(100.246 -1.11608 -0.730253)
(100.24 -1.11331 -0.730741)
(100.235 -1.11205 -0.731762)
(100.23 -1.11167 -0.73324)
(100.226 -1.11157 -0.735138)
(100.222 -1.11124 -0.737446)
(100.22 -1.11021 -0.740211)
(100.22 -1.10809 -0.743542)
(100.223 -1.10469 -0.747587)
(100.229 -1.10028 -0.752385)
(100.006 0.0223208 0.000432162)
(100.025 0.0459889 0.000530927)
(100.061 0.0733568 -5.39921e-05)
(100.118 0.106856 -0.00176835)
(100.2 0.149107 -0.00533748)
(100.316 0.202625 -0.0117946)
(100.478 0.268834 -0.0227853)
(100.703 0.345326 -0.0407294)
(101.006 0.41928 -0.068964)
(101.398 0.452356 -0.111535)
(101.853 0.389028 -0.172251)
(102.275 0.155143 -0.252476)
(102.493 -0.261254 -0.346978)
(102.378 -0.686823 -0.44362)
(101.993 -0.928984 -0.529212)
(101.541 -0.989352 -0.595457)
(101.166 -0.962215 -0.642457)
(100.896 -0.909243 -0.674112)
(100.702 -0.853317 -0.694484)
(100.56 -0.801042 -0.706592)
(100.457 -0.755229 -0.712674)
(100.382 -0.718859 -0.714573)
(100.329 -0.69244 -0.714192)
(100.292 -0.673891 -0.712459)
(100.266 -0.661526 -0.709891)
(100.248 -0.654063 -0.706977)
(100.235 -0.650291 -0.704154)
(100.226 -0.649212 -0.70171)
(100.22 -0.650107 -0.699798)
(100.215 -0.652419 -0.698476)
(100.211 -0.655651 -0.697738)
(100.208 -0.659382 -0.697536)
(100.206 -0.663225 -0.697794)
(100.203 -0.666863 -0.698433)
(100.201 -0.669958 -0.699433)
(100.2 -0.67229 -0.700729)
(100.201 -0.673657 -0.702325)
(100.203 -0.673926 -0.704307)
(100.208 -0.673067 -0.706838)
(100.22 -0.671192 -0.710178)
(100.006 0.00763293 0.000162117)
(100.027 0.0157094 -6.31505e-05)
(100.067 0.0250185 -0.0011511)
(100.129 0.0363461 -0.00341602)
(100.217 0.0505083 -0.00785593)
(100.341 0.0681833 -0.0153805)
(100.509 0.0893801 -0.0276373)
(100.732 0.112653 -0.0468794)
(101.018 0.13284 -0.0761427)
(101.361 0.137733 -0.118262)
(101.727 0.10769 -0.175662)
(102.041 0.0224187 -0.248425)
(102.203 -0.1148 -0.332263)
(102.136 -0.257577 -0.418265)
(101.864 -0.348413 -0.496317)
(101.505 -0.377357 -0.559728)
(101.172 -0.372285 -0.606632)
(100.911 -0.356987 -0.639083)
(100.716 -0.340483 -0.6604)
(100.569 -0.324981 -0.673335)
(100.461 -0.311278 -0.680117)
(100.381 -0.299901 -0.682577)
(100.325 -0.290393 -0.682317)
(100.286 -0.282134 -0.680474)
(100.26 -0.274699 -0.677981)
(100.242 -0.267893 -0.67536)
(100.23 -0.261593 -0.672969)
(100.222 -0.255734 -0.67107)
(100.216 -0.250317 -0.66982)
(100.212 -0.245355 -0.669278)
(100.209 -0.240846 -0.669427)
(100.206 -0.236762 -0.670194)
(100.203 -0.233061 -0.671462)
(100.2 -0.229681 -0.67307)
(100.198 -0.226519 -0.675159)
(100.196 -0.223516 -0.67749)
(100.196 -0.220615 -0.679988)
(100.197 -0.217783 -0.682703)
(100.2 -0.215111 -0.685759)
(100.207 -0.213112 -0.689362)
(99.9938 0.00570235 0.0115514)
(99.9727 0.0114749 0.0242512)
(99.9337 0.0174675 0.0393025)
(99.8762 0.0237053 0.0581167)
(99.799 0.0299448 0.0822741)
(99.7002 0.0354715 0.113687)
(99.5792 0.0387454 0.154444)
(99.4386 0.0369904 0.206905)
(99.2865 0.0257815 0.27325)
(99.141 -0.000831054 0.354559)
(99.0325 -0.0483211 0.45)
(98.9982 -0.114788 0.555491)
(99.062 -0.182778 0.663494)
(99.2157 -0.233975 0.765592)
(99.419 -0.258997 0.854503)
(99.6272 -0.266873 0.927723)
(99.8153 -0.265681 0.985581)
(99.9759 -0.259753 1.02975)
(100.109 -0.251689 1.06217)
(100.217 -0.243436 1.08496)
(100.302 -0.235704 1.10019)
(100.368 -0.228568 1.11014)
(100.418 -0.222181 1.11694)
(100.456 -0.217095 1.12198)
(100.484 -0.213367 1.12598)
(100.504 -0.210705 1.12931)
(100.519 -0.208899 1.13227)
(100.529 -0.207812 1.13518)
(100.535 -0.207297 1.13834)
(100.539 -0.207213 1.14187)
(100.541 -0.207457 1.14576)
(100.541 -0.207963 1.14995)
(100.541 -0.208673 1.15433)
(100.541 -0.209542 1.15872)
(100.542 -0.210533 1.16287)
(100.544 -0.211636 1.16648)
(100.547 -0.212851 1.16926)
(100.553 -0.214168 1.17091)
(100.561 -0.21561 1.17104)
(100.576 -0.217297 1.16915)
(99.994 0.0169394 0.0112972)
(99.9734 0.0341523 0.0237301)
(99.9351 0.0521821 0.0385269)
(99.8782 0.0712426 0.0571003)
(99.8006 0.0908053 0.0810941)
(99.6992 0.109006 0.112573)
(99.5714 0.121555 0.153959)
(99.4167 0.12028 0.208081)
(99.2407 0.0914441 0.277796)
(99.0599 0.015415 0.365182)
(98.912 -0.124315 0.470106)
(98.8586 -0.321871 0.589219)