/*--------------------------------*- C++ -*----------------------------------*\
| =========                 |                                                 |
| \\      /  F ield         | OpenFOAM: The Open Source CFD Toolbox           |
|  \\    /   O peration     | Version:  2306                                  |
|   \\  /    A nd           | Website:  www.openfoam.com                      |
|    \\/     M anipulation  |                                                 |
\*---------------------------------------------------------------------------*/
FoamFile
{
    version     2.0;
    format      ascii;
    arch        "LSB;label=32;scalar=64";
    class       volVectorField;
    location    "1.15";
    object      Force;
}
// * * * * * * * * * * * * * * * * * * * * * * * * * * * * * * * * * * * * * //

dimensions      [1 1 -2 0 0 0 0];

internalField   uniform (0 0 0);

boundaryField
{
    walls
    {
        type            calculated;
        value           uniform (0 0 0);
    }
    inlet
    {
        type            calculated;
        value           uniform (0 0 0);
    }
    outlet
    {
        type            calculated;
        value           uniform (0 0 0);
    }
    NASA
    {
        type            calculated;
        value           nonuniform List<vector> 
14179
(
(-0.01427 -0.131273 3.11833e-06)
(-0.0127103 -0.105113 1.97923e-06)
(-0.065954 -0.533549 0.000313192)
(-0.100393 -0.80718 0.00118264)
(-0.0645155 -0.522433 0.000159519)
(-0.109362 -0.87916 0.00134095)
(0.219484 0.953232 -0.000143001)
(0.100292 0.503517 -4.10998e-05)
(0.680157 3.33535 0.00456557)
(0.104337 0.523842 -4.41136e-05)
(0.000829718 0.000672738 -7.31454e-07)
(-0.0178129 -0.145621 0.000243851)
(0.131014 0.654105 -0.000883816)
(-0.035461 -0.32234 0.000658828)
(0.0620983 0.309849 -0.000398451)
(1.37734 0.929089 0.00281099)
(1.39187 0.922328 -0.000226278)
(0.0236604 0.132954 -2.47238e-05)
(0.157692 0.935829 -9.35283e-05)
(1.26915 0.84116 -0.000813211)
(-0.016835 -0.235618 -1.39186e-05)
(-0.0209061 -0.194453 -0.000136108)
(-0.0192567 -0.267434 -0.000250925)
(-0.00838615 -0.0611326 1.20597e-06)
(-0.0128793 -0.106571 1.04026e-05)
(-0.00906349 -0.0660691 1.05004e-05)
(-0.0129032 -0.106231 0.000230648)
(-0.015123 -0.108341 0.00024303)
(-0.0132491 -0.120959 0.000264497)
(-0.0155027 -0.21264 0.00346842)
(0.0472605 0.206391 3.13406e-05)
(0.0533126 0.251387 7.48876e-06)
(0.0573225 0.270298 -6.25155e-05)
(0.0466067 0.203029 -1.70265e-05)
(0.0610523 0.223963 3.74893e-06)
(0.0637837 0.23386 2.14285e-05)
(0.0304906 0.110629 2.5741e-06)
(0.0337448 0.122372 1.41283e-05)
(-0.00208858 -0.00997202 0.00013625)
(-0.0129531 -0.0630183 0.000595933)
(0.171159 0.624951 -0.000532766)
(0.100259 0.361388 5.38392e-05)
(0.102285 0.51334 -4.22569e-05)
(-0.00571935 -0.0402701 2.29311e-06)
(-0.00522007 -0.0367498 -5.09487e-06)
(0.160786 0.80751 -6.43783e-05)
(-0.00982688 -0.0679602 0.000185746)
(0.0975048 0.486627 -0.000184042)
(0.0906769 0.452958 -0.00028664)
(0.108443 0.443066 -0.000324038)
(0.0848392 0.31538 -1.59805e-05)
(0.0845188 0.314175 -2.78653e-05)
(-0.0550844 1.34534 -8.50706e-05)
(1.38702 0.922112 -0.000720001)
(-0.0484652 1.1908 7.91315e-05)
(-0.00229405 1.10939 -5.14494e-05)
(0.069512 1.05189 4.17082e-05)
(0.0703295 1.06255 -0.000140072)
(-0.00213886 0.952628 -4.08185e-06)
(0.0899252 0.353467 -1.99451e-05)
(0.157137 0.93176 -7.61102e-05)
(0.00752802 0.0273654 6.26902e-05)
(-0.0227854 0.566486 -0.0002873)
(0.917734 0.626139 0.0771143)
(-0.000710138 0.532904 -0.000563989)
(0.0269746 0.409539 -0.000313631)
(0.127711 0.747239 0.00760296)
(-0.0144101 -0.144217 5.33764e-06)
(-0.0142119 -0.13082 5.12545e-06)
(-0.0987287 -0.793915 0.00115972)
(-0.0111734 -0.0886566 2.33648e-06)
(-0.0126865 -0.104923 3.98182e-06)
(1.31618 0.871316 -0.00148792)
(1.268 0.839682 -0.00122055)
(0.347074 2.05705 -0.00347944)
(0.261711 1.54562 -0.00224675)
(-0.11078 -0.891665 -0.000122773)
(-0.0566813 -0.352639 0.000569904)
(-0.0558268 -0.349471 0.000557412)
(-0.0429181 -0.251676 0.000429522)
(0.157581 0.67972 -0.00108859)
(0.177088 0.765429 -0.00119008)
(0.762845 1.30973 -5.74784e-05)
(0.763411 1.3087 -0.000333782)
(0.100997 0.506928 -3.7345e-05)
(0.0919859 0.441984 -2.45858e-05)
(1.15374e-05 -0.00141169 -1.07516e-06)
(0.00176297 0.00923236 -5.97537e-08)
(0.00180003 0.00944513 -1.80024e-06)
(1.93104e-05 -0.00135708 1.33872e-07)
(0.105346 0.528892 -2.38902e-05)
(0.0964903 0.497745 -3.0432e-05)
(-0.0200401 -0.163717 0.000280329)
(-0.0135043 -0.0966976 0.000182998)
(-0.0203581 -0.145318 0.000247544)
(-0.0123345 -0.0849956 0.000172232)
(-0.0181423 -0.12437 0.000169114)
(0.0859637 0.428818 -0.000700005)
(-0.0199992 -0.181863 0.000294924)
(-0.0245616 -0.337555 0.000823495)
(-0.0207526 -0.291355 -0.000109503)
(0.0806383 0.402622 -0.000628196)
(1.37451 0.923081 -0.00269925)
(0.095465 0.562884 -4.39178e-05)
(0.103656 0.579792 -2.15313e-05)
(0.104229 0.582791 -4.33293e-05)
(0.175257 1.22018 -8.23486e-05)
(0.102353 0.607153 -3.81429e-05)
(0.15705 0.931798 -6.03419e-05)
(0.0187458 0.0176968 1.79214e-05)
(0.357674 -0.131803 0.00358925)
(0.36864 -0.14615 0.00173853)
(0.0131167 0.0125943 -3.47863e-05)
(-0.00686 -0.0293863 0.000117488)
(0.0212238 0.0782065 -6.61169e-05)
(0.00204807 0.00692873 5.89965e-05)
(0.0213253 0.0857652 2.05339e-05)
(-0.0096481 -0.0430313 8.52483e-05)
(-0.00202861 -0.0112609 9.7289e-05)
(0.00403646 0.0167757 2.28417e-05)
(-0.0182454 -0.0881993 0.000142138)
(-0.00103127 0.730099 -0.000976926)
(0.0407645 0.608396 -0.000872085)
(-0.00150931 0.978509 -0.00135831)
(0.0317743 0.480705 -0.00100985)
(-0.0345721 0.865298 -0.00136436)
(1.09631 0.737405 -0.00104304)
(-0.0468463 1.16017 -0.00158925)
(0.109965 0.650546 -0.00195422)
(0.157467 0.616503 -0.00117777)
(0.11813 0.461876 -0.000635994)
(0.109112 0.398056 -0.000525196)
(0.154701 0.565083 -0.000762901)
(0.0636421 0.229573 -0.000300466)
(0.087029 0.314471 -0.00049195)
(-0.0130038 -0.146545 -2.80579e-06)
(-0.0167203 -0.233703 5.48297e-06)
(-0.0102227 -0.0787953 2.24703e-06)
(-0.00823736 -0.060052 1.53859e-06)
(0.000365458 0.000538529 0.529649)
(-0.0129497 -0.101848 0.000225583)
(0.000338412 0.000515984 0.503571)
(-0.0143982 -0.109662 0.000250571)
(0.000629243 0.000731587 0.573432)
(-0.0129661 -0.129387 0.000349768)
(0.00085708 0.00117914 0.574725)
(-0.0120672 -0.138876 0.00115809)
(0.0531002 0.250376 -1.92241e-05)
(0.0395507 0.179885 -5.29924e-06)
(0.0398682 0.181348 -1.39378e-05)
(0.0468345 0.20398 -1.06359e-05)
(0.0461205 0.203161 -7.60028e-06)
(0.0463625 0.204235 -1.41449e-05)
(0.0610089 0.223715 8.86813e-06)
(0.0243902 0.121325 -9.47714e-06)
(0.0218486 0.110871 -8.37587e-06)
(0.0312241 0.113255 8.58746e-06)
(0.0263652 0.0927649 1.60776e-06)
(-0.00649413 -0.029711 0.000213979)
(-0.00549579 -0.0261635 0.000243027)
(0.000288269 0.00040224 0.321013)
(0.000293223 0.000375405 0.314434)
(0.000285473 0.000365434 0.310076)
(0.000290618 0.000385507 0.357228)
(0.0949766 0.32358 0.00029552)
(0.16174 0.565443 0.00385908)
(-3.38916e-05 0.000458562 0.338127)
(0.000221132 2.93625e-05 0.307035)
(0.000120459 0.00014796 0.108503)
(0.0828556 0.290821 6.53721e-05)
(0.285375 0.662943 -2.59521e-06)
(0.168259 0.59319 6.34341e-05)
(0.166582 0.587314 -2.28489e-05)
(0.0836016 0.390493 -1.6041e-05)
(0.0831198 0.388223 -2.23366e-05)
(0.141648 0.6767 -3.20853e-05)
(0.0812575 0.361849 -1.62061e-05)
(0.0856144 0.388643 -1.1735e-05)
(0.0853943 0.387523 -1.97457e-05)
(0.0816672 0.363831 -5.78134e-06)
(-0.00432355 -0.0306466 -2.10471e-07)
(-0.00564654 -0.0397619 -8.01112e-08)
(0.149296 0.791012 -2.8544e-05)
(0.264172 0.45554 0.0110753)
(0.000674428 0.00266501 0.858706)
(0.000347629 0.00122382 0.410431)
(0.04835 0.140609 0.000104228)
(-0.0118648 -0.0739808 0.000250807)
(-0.0118615 -0.0748432 0.000394985)
(0.000715262 0.00126024 0.673292)
(0.000225282 5.84426e-05 0.310075)
(0.0965335 0.495355 0.000797183)
(0.000375612 -1.99712e-05 0.373569)
(0.140387 0.737675 0.00512294)
(0.000420808 0.000545218 0.345985)
(0.000277367 0.000386399 0.327595)
(-0.000465727 5.29453e-05 0.350237)
(6.88405e-05 0.000242984 0.112581)
(0.080852 0.386198 -0.000275643)
(0.103562 0.481015 0.000703631)
(0.000373259 6.08983e-05 0.205857)
(9.42223e-05 0.000345968 0.107988)
(0.170357 0.715797 0.00165028)
(0.0848698 0.315483 -1.61396e-05)
(0.0808695 0.309577 -2.0594e-05)
(0.0965798 0.393722 -2.68467e-05)
(0.0677398 0.272836 -7.27298e-06)
(-0.825597 2.63946 -0.0202674)
(-0.0516154 1.26451 -3.3415e-05)
(-0.169149 1.58106 0.000686504)
(0.0692579 1.04581 -7.64758e-05)
(0.0496661 1.0631 -4.55016e-05)
(-0.00211352 1.00355 -7.94206e-06)
(0.0260881 0.986818 -3.10254e-05)
(0.11616 1.27528 -5.53369e-05)
(0.144299 1.86382 -7.59575e-05)
(0.142689 1.84225 -8.15592e-05)
(0.115573 1.26947 -7.30205e-05)
(0.132547 1.35429 -8.06293e-05)
(0.133991 1.24716 -5.48827e-06)
(0.136061 1.26661 -0.000108619)
(0.130007 1.32813 -7.22733e-06)
(0.0648545 0.268756 -7.37157e-06)
(0.0580622 0.230414 -6.36714e-06)
(0.0891026 0.350129 -1.61869e-06)
(0.107899 0.730914 -7.1019e-05)
(0.110044 0.693123 -4.31826e-05)
(-0.000560778 -0.000208183 0.563125)
(0.000608842 0.00198529 0.887539)
(0.00113237 0.00362177 0.000134814)
(9.00777e-05 0.00244552 0.734492)
(0.00213327 0.00728868 0.000130137)
(0.00026752 0.00976174 0.27308)
(-0.0603547 0.579494 -0.000854707)
(0.00716124 -0.00360449 1.74315)
(0.0002501 0.000366123 0.303112)
(0.0141654 0.516829 -0.00060232)
(0.000641232 -4.34247e-05 0.244314)
(0.0232265 0.485596 -0.000432067)
(0.0613579 0.52768 -0.00059873)
(0.0611213 0.518132 -0.000560448)
(0.000285659 0.000304282 0.243625)
(0.000310405 0.000331811 0.267947)
(0.0575 0.530261 -0.000500411)
(0.0522381 0.526732 -0.00021193)
(0.0472347 0.516771 0.00110782)
(1.95201e-05 -0.000777665 0.222188)
(-0.0191507 -0.105098 0.00112368)
(-1.90327e-05 0.000499306 0.499322)
(0.0919153 0.510989 -0.000167308)
(0.000283439 0.000370722 0.319151)
(0.000286713 0.000373784 0.320701)
(0.477839 -0.19038 -0.00390316)
(0.228872 0.216394 0.00234598)
(0.000173562 7.03488e-05 0.0814946)
(-0.0529809 -0.521091 0.000514574)
(-0.0696688 -0.562811 0.00056232)
(-0.056398 -0.553932 0.000684709)
(-0.0700331 -0.565701 0.000576348)
(-0.0765498 -0.617414 0.000771299)
(-0.0588413 -0.577386 0.000790864)
(-0.0828969 -0.6678 0.000924077)
(0.179842 0.77818 -0.00121708)
(0.450456 2.20531 -0.0032606)
(0.183315 0.793637 -0.00123442)
(0.429764 2.10342 -0.00312803)
(-0.0646585 -0.523462 0.000180761)
(-0.0423257 -0.263893 0.000405871)
(-0.104677 -0.841314 0.00124369)
(-0.0480764 -0.299298 0.000463696)
(1.39385 0.923625 -0.00043619)
(1.3936 0.923459 -0.000221752)
(0.238171 1.03422 -0.000178585)
(0.710856 3.48797 -0.000936562)
(0.612829 3.00661 -0.000535074)
(0.245748 1.0669 -0.000292927)
(0.409398 2.42671 -0.000471537)
(0.423913 2.51256 -0.000786745)
(0.000277947 -0.00161201 1.55202e-06)
(0.000810986 0.00106477 -1.28121e-07)
(0.0235371 0.133336 -4.37468e-05)
(0.0240475 0.135731 -2.98709e-05)
(0.0481661 0.208897 -0.000191619)
(0.0351925 0.159711 -0.000144652)
(0.058209 0.253235 -0.000271888)
(0.0270625 0.121883 -7.57903e-05)
(-0.108525 -0.873024 0.00134127)
(-0.0691986 -0.502686 0.00077057)
(0.0162384 0.075899 1.04578e-05)
(-0.0115093 -0.0636747 0.000156379)
(0.0641094 0.233735 -0.0003772)
(0.0721445 0.262996 -0.000400875)
(0.0348716 0.125678 -0.000204632)
(0.0403503 0.145416 -0.000222066)
(0.286589 1.29683 -0.000225135)
(0.181949 0.789496 1.26482e-05)
(0.325115 1.53744 -0.000314346)
(0.145782 0.731605 -7.15871e-05)
(-0.0184433 -0.15533 0.000162179)
(-0.0416375 -0.30896 0.000290235)
(-0.00677754 -0.0495661 -1.49913e-05)
(0.00163803 0.00496149 -2.8115e-06)
(-0.0172898 -0.118835 2.05146e-05)
(-0.0229248 -0.160912 6.79258e-05)
(0.0974264 0.398366 0.000159138)
(0.0843131 0.313423 -6.02095e-05)
(0.0844244 0.31383 -3.82926e-05)
(0.108978 0.447092 -0.000667974)
(0.166474 0.731242 -0.000157691)
(0.142992 0.658975 6.49259e-06)
(0.173793 0.763944 -0.000139164)
(0.183164 0.854234 2.9928e-06)
(-0.002478 1.20042 -3.08912e-05)
(0.0705128 1.06197 -0.000207294)
(-0.0030503 1.46671 -0.000238397)
(0.0722901 1.09191 -0.000176191)
(-0.0586557 1.43357 -7.23692e-05)
(1.38998 0.922388 -0.000378811)
(-0.0683953 1.67262 -0.000280962)
(0.485133 4.1598 -0.0016976)
(0.0920727 0.361821 -2.08572e-06)
(0.0880705 0.34614 -3.11117e-05)
(0.0712517 0.26131 1.61777e-05)
(0.0657321 0.241033 2.03404e-05)
(0.0578418 0.303252 -8.96358e-05)
(0.186058 0.918462 -0.00105425)
(0.0228509 0.127547 -6.24016e-05)
(0.048386 0.25972 -4.70058e-05)
(0.738935 4.62292 0.00255398)
(0.346532 2.31491 0.000571393)
(0.0407177 0.14772 1.01009e-05)
(0.035594 0.129097 1.70364e-05)
(1.25069 0.830844 0.000231809)
(0.090197 0.624308 -0.000955862)
(0.253626 0.237885 -0.000247788)
(0.497011 -0.206097 4.76449e-05)
(0.24039 0.226173 -0.000316805)
(0.51705 -0.214774 -0.000215819)
(0.0622121 0.228114 1.3735e-05)
(0.0293836 0.10332 1.4117e-05)
(0.0324006 0.117516 1.25729e-05)
(0.285419 0.663037 -1.73678e-05)
(0.2759 0.809869 -5.63237e-05)
(0.000553424 0.00148419 0.724953)
(0.000205772 0.00056882 0.361382)
(0.000371528 -1.73822e-05 0.38295)
(-0.1823 1.69014 -0.000142398)
(-0.0539391 1.31884 -2.88633e-05)
(1.38302 0.922825 -0.00142842)
(0.0237707 0.0224522 2.21141e-05)
(0.362579 -0.149013 0.00013664)
(0.36727 -0.149312 0.000592228)
(0.024494 0.0231029 1.62797e-05)
(0.000304463 0.000303851 0.541533)
(0.000251191 0.000141286 0.379078)
(0.000248552 0.000315289 0.340532)
(0.000431288 0.000554146 0.363775)
(-0.0897417 -0.722305 0.00103368)
(1.352 0.895116 -0.00154358)
(1.33755 0.885523 -0.00152126)
(1.31238 0.868814 -0.0014848)
(1.33629 0.88468 -0.00151943)
(0.399371 1.95356 -0.00291829)
(0.176563 0.763361 -0.00119377)
(0.178509 0.772277 -0.00120826)
(0.421945 2.06497 -0.00307873)
(0.271192 1.60192 -0.00236004)
(0.290143 1.71419 -0.00248841)
(-0.0245211 -0.144882 0.000237625)
(-0.031328 -0.184249 0.000301152)
(-0.0555363 -0.345371 0.000547688)
(-0.0501148 -0.311849 0.000485969)
(-0.0410182 -0.240453 0.000401065)
(-0.0338734 -0.198972 0.00032647)
(0.254066 2.16058 -0.00308177)
(0.240968 2.04856 -0.00303763)
(0.0244284 0.0901261 -8.73424e-05)
(0.0228841 0.0923813 -0.000113382)
(0.0343499 0.139586 4.60855e-05)
(0.0324208 0.119853 -0.00014196)
(0.00136761 0.00485007 6.44026e-05)
(0.0254739 0.108714 4.17324e-06)
(0.034698 0.149647 -9.42294e-05)
(0.0201357 0.0892479 1.41782e-05)
(0.040346 0.149334 -0.000193168)
(0.0443435 0.180737 1.67229e-05)
(0.0346809 0.128261 -0.000157024)
(0.0426433 0.636161 -0.000898705)
(-0.0015917 1.02178 -0.00141795)
(-0.00177886 1.12645 -0.00156113)
(0.0469881 0.701232 -0.000995067)
(-0.0542228 1.34163 -0.00184525)
(1.303 0.862572 -0.00146394)
(-0.0567079 1.40276 -0.00193258)
(-0.0486734 1.20511 -0.00165464)
(-0.0530211 1.31209 -0.00180403)
(1.29965 0.860343 -0.00146085)
(-0.00183179 1.15493 -0.00160066)
(0.051326 0.767088 -0.00108151)
(-0.00193652 1.21135 -0.00168104)
(0.0483116 0.721473 -0.00099526)
(0.227304 1.34223 -0.00190534)
(0.412007 2.56399 -0.0057834)
(0.238283 1.58646 -0.00232834)
(0.247916 1.46366 -0.00220074)
(0.406545 2.53474 -0.00366361)
(0.37874 2.36038 -0.0034976)
(0.196265 1.30486 -0.0028102)
(-0.0810999 -0.595115 0.000522241)
(-0.101673 -0.81831 0.00124912)
(-0.0665937 -0.441973 0.000692093)
(-0.0568521 -0.354171 0.000594213)
(-0.0800634 -0.536873 0.000751926)
(-0.0531822 -0.332175 0.000576954)
(-0.0244657 -0.136084 0.000263984)
(-0.0447791 -0.262995 0.000476082)
(0.00301837 0.00850887 0.000217686)
(-0.0474491 -0.279997 0.000485556)
(0.232286 1.04361 -0.00167662)
(0.180556 0.779961 -0.0011896)
(0.239158 1.12674 -0.00170411)
(0.178568 0.771625 -0.00118746)
(0.226501 1.02098 -0.00156238)
(0.242406 1.14086 -0.00206702)
(0.369264 1.80431 -0.00282458)
(0.106046 0.414548 -0.000584608)
(0.0899293 0.351467 -0.000527937)
(0.0960107 0.350163 -0.000480458)
(0.0758788 0.276616 -0.000411646)
(0.0873559 0.341441 -0.000526554)
(0.0813761 0.318135 -0.000506597)
(0.0558744 0.20149 -0.000273443)
(0.0429121 0.154653 -0.000229973)
(0.121064 0.280575 -0.000348869)
(0.102454 0.237335 -0.000259868)
(-0.020678 -0.156659 0.000276374)
(-0.0182038 -0.130153 0.000237447)
(0.0815197 0.416587 -0.000919551)
(0.0861613 0.429995 -0.000625939)
(0.124511 0.657164 -0.00160617)
(-0.019168 -0.189362 0.000240193)
(-0.0197868 -0.180334 0.000304232)
(-0.0170851 -0.187912 -4.56097e-06)
(-0.0210692 -0.29211 0.000410707)
(0.0774397 0.370586 -0.000693616)
(0.0820265 0.409407 -0.000584481)
(-0.00451216 -0.0189847 7.87845e-05)
(0.00549185 0.0210579 8.15398e-05)
(-0.00116662 -0.00525514 7.5279e-05)
(0.0122434 0.0448081 6.74535e-06)
(0.0176355 0.646202 -0.000885786)
(-0.00124244 0.843765 -0.001188)
(0.0268548 0.565881 -0.000849626)
(0.0360678 0.53947 -0.000849676)
(-0.104633 0.995591 -0.00279959)
(-0.0408661 1.01484 -0.00145682)
(1.21459 0.811079 0.00173422)
(-0.454528 1.47957 -0.00173409)
(-0.0447211 1.10846 -0.00153891)
(-0.139853 1.30245 -0.00173723)
(-0.0120751 -0.0630635 0.00015483)
(-0.00895072 -0.0460179 0.000123369)
(-0.010739 -0.0549693 0.000142376)
(-0.0102713 -0.0538426 0.000136736)
(-0.0249422 -0.136873 0.000136363)
(0.000679227 0.000810631 0.38599)
(0.0584731 0.393294 -0.000589209)
(0.0921846 0.638181 -0.00107088)
(0.0605135 0.406743 -0.000673335)
(0.127164 0.464067 -0.00059407)
(0.154917 0.565638 -0.000736511)
(0.0734597 0.265077 -0.000335305)
(0.062427 0.21836 -0.000284598)
(0.082187 0.288023 -0.000557257)
(0.0899701 0.324861 -0.000433449)
(0.449927 -0.188037 -0.00273802)
(0.21683 0.199109 0.000652635)
(0.264759 0.246248 -5.62064e-05)
(0.522439 -0.217976 -0.00104422)
(0.22868 0.991175 -0.00147232)
(0.582162 2.85271 -0.00407667)
(0.229929 0.996743 -0.0014322)
(0.557945 2.7338 -0.00395307)
(-0.0653619 -0.528917 0.000258238)
(-0.000817931 -0.00831883 6.88416e-06)
(-0.000368461 -0.00554984 4.48264e-06)
(0.244646 1.062 -0.000500564)
(0.625586 3.06879 -0.00181198)
(0.224706 0.975281 -0.000562057)
(-0.0611205 -0.444211 0.000655947)
(0.179179 0.78792 -0.000248976)
(0.145796 0.672907 -0.000238305)
(0.179369 0.788769 -0.000285377)
(0.14572 0.672511 -0.000212481)
(0.0674566 0.247235 -5.51941e-05)
(0.0705888 0.258584 -6.79062e-05)
(-0.0323614 -0.237579 7.50829e-05)
(0.165363 0.818556 -0.000284839)
(0.0652561 0.34325 -0.000117304)
(0.0357963 0.129748 -2.81502e-05)
(0.0370778 0.134332 -3.62796e-05)
(1.39188 0.922448 -0.000222913)
(0.0265702 0.0249678 7.49013e-06)
(0.335706 -0.139304 -3.08151e-06)
(0.0216474 0.0203173 1.94338e-06)
(0.341636 -0.141705 -4.87959e-06)
(-0.021452 -0.135388 0.000199385)
(-0.0238023 -0.149857 0.000223174)
(-0.0402492 -0.25111 0.000385393)
(-0.094603 -0.761037 0.00110218)
(-0.0352437 -0.220295 0.000335723)
(0.185215 0.802033 -0.00124645)
(0.196559 0.8519 -0.00130632)
(0.1011 0.442358 -0.000590047)
(0.0757883 0.34779 -0.000461259)
(0.104656 0.45803 -0.000615116)
(0.0724239 0.332214 -0.000435707)
(0.0421647 0.192109 -0.000204422)
(0.0667736 0.291027 -0.00033669)
(0.0736469 0.321339 -0.000389359)
(0.0480154 0.219241 -0.000252597)
(0.0580928 0.212479 -0.000373894)
(0.0564835 0.206455 -0.000362664)
(0.0623077 0.227193 -0.000372038)
(0.0584008 0.213043 -0.00036049)
(0.0135151 0.0689783 -6.96495e-05)
(0.0670636 0.328905 -0.000418055)
(-0.0686477 -0.498552 0.000757722)
(0.0237701 0.113594 -6.27508e-05)
(-0.00772531 -0.0434772 0.000116288)
(0.0308487 0.148901 -0.000126403)
(0.0315094 0.113976 -0.000206359)
(0.0301427 0.108947 -0.000197038)
(0.0336455 0.121271 -0.000200947)
(0.031026 0.111882 -0.000193062)
(1.31511 0.870599 -0.00148365)
(1.28194 0.848651 -0.00136806)
(0.13112 0.123507 -0.000208371)
(0.360264 -0.149595 0.000139064)
(0.370436 -0.153818 0.000144699)
(0.118817 0.111907 -0.000192614)
(0.475286 -0.197114 0.000133694)
(0.223873 0.210839 -0.000321175)
(0.209561 0.197428 -0.000307704)
(0.455435 -0.188987 0.000143174)
(2.4608e-05 -0.0171176 1.06629e-05)
(6.10117e-05 -0.0143568 1.2548e-05)
(-0.0522372 -0.514067 0.000427487)
(-9.22089e-05 -0.0255923 2.56848e-05)
(-9.24393e-05 -0.025699 2.17778e-05)
(-0.068007 -0.549717 0.000463663)
(-0.0546336 -0.536936 0.000613988)
(-0.000206676 -0.0338301 4.46625e-05)
(-0.000107541 -0.0266302 3.27719e-05)
(-0.0724857 -0.585138 0.000668231)
(-0.0730341 -0.589494 0.000681609)
(2.03942e-05 -0.0169839 2.82635e-05)
(-0.0582884 -0.57212 0.000755666)
(-0.000312581 -0.0414503 5.67208e-05)
(-0.0807392 -0.650676 0.000868005)
(1.37309 0.909184 -0.00155258)
(1.37 0.90712 -0.00155739)
(1.36639 0.904699 -0.00155996)
(1.37174 0.908262 -0.00156012)
(0.221173 0.958762 -0.00143878)
(0.526628 2.58048 -0.00375928)
(0.548029 2.68526 -0.00388618)
(0.189199 0.820289 -0.00123575)
(0.180655 0.781836 -0.00122009)
(0.237939 1.07352 -0.00163994)
(0.268887 1.26819 -0.00189607)
(0.443917 2.17311 -0.0032182)
(0.182106 0.788258 -0.00122764)
(0.24522 1.1068 -0.00168073)
(0.25823 1.21755 -0.00183131)
(0.436369 2.13595 -0.00317635)
(1.38801 0.91965 -0.000787887)
(1.38999 0.921019 -0.000648353)
(1.39325 0.923216 -0.00046545)
(1.39185 0.922254 -0.000626716)
(0.422021 2.50153 -0.000899313)
(0.425171 2.52004 -0.00126566)
(0.000155244 -0.00233615 1.87179e-06)
(-0.0651292 -0.527093 0.000238339)
(-0.000173558 -0.00434901 3.63753e-06)
(0.0224735 0.127181 -7.65021e-05)
(0.022929 0.129833 -6.55617e-05)
(0.0234258 0.132718 -4.85253e-05)
(0.0231395 0.131057 -6.16779e-05)
(0.239529 1.03994 -0.000326488)
(0.246782 1.07134 -0.000465567)
(0.706339 3.46563 -0.00162982)
(-0.0554137 -0.368096 0.000552128)
(-0.0441427 -0.27508 0.000423803)
(-0.0646816 -0.469865 0.000700118)
(-0.0461867 -0.287663 0.000444452)
(-0.0601433 -0.399202 0.00060439)
(0.419531 3.58869 -0.00121919)
(0.42553 3.64043 -0.00103578)
(0.0843132 0.31342 -6.88938e-05)
(0.109091 0.447582 0.000475255)
(0.109231 0.448162 -0.000704715)
(0.0842639 0.313236 -9.08971e-05)
(0.142152 0.655405 -0.000188677)
(0.177651 0.781072 -0.000177796)
(0.178656 0.785576 -0.000215722)
(0.145115 0.669566 -0.000186471)
(0.109237 0.448184 0.000433411)
(0.0841801 0.312921 -0.000119581)
(0.109214 0.448078 -0.000745572)
(0.0842458 0.313169 -9.90779e-05)
(0.0695041 1.04743 -0.00020166)
(-0.00312194 1.50049 -0.000289164)
(-0.0032048 1.53696 -0.000431496)
(0.0713275 1.07489 -0.000303652)
(-0.0713768 1.74513 -0.000529399)
(1.39408 0.923777 -0.000354518)
(-0.0684524 1.67389 -0.000632938)
(-0.0698638 1.70844 -0.000334974)
(-0.0714781 1.74762 -0.000483716)
(1.39375 0.923559 -0.000316409)
(-0.0031971 1.53278 -0.000468102)
(0.0692099 1.04498 -0.000361919)
(-0.00299224 1.43436 -0.000560544)
(0.0712408 1.07359 -0.000336354)
(0.313098 1.41683 -0.000213112)
(0.248084 1.07705 -0.000217082)
(0.678715 3.33013 -0.000709321)
(0.415111 1.96296 -0.000523271)
(0.342813 1.62121 -0.000219022)
(0.6441 3.16018 -0.000661955)
(0.247984 1.07659 -0.000262642)
(0.35908 1.62468 -0.000428012)
(0.0817005 0.321042 -6.82322e-05)
(0.0753881 0.296006 -8.65971e-05)
(0.0725366 0.265997 -4.02634e-05)
(0.0733962 0.268916 -7.08007e-05)
(0.0739235 0.290216 -8.8459e-05)
(0.653823 4.08932 -0.00117387)
(0.432102 2.56106 -0.000605226)
(0.668011 4.1793 -0.00106826)
(0.39149 2.61743 -0.000851585)
(0.404916 2.70675 -0.000710284)
(0.435105 2.57903 -0.000658023)
(-0.0304466 -0.224246 5.0176e-05)
(-0.0187192 -0.127012 4.16307e-05)
(0.000427624 -0.000771097 9.73336e-07)
(-0.0178788 -0.122098 2.85993e-05)
(0.000488799 -0.000575954 9.80904e-07)
(0.0645533 0.339032 -7.25702e-05)
(0.162993 0.805989 -0.000174537)
(0.165319 0.818031 -0.000219266)
(0.0495701 0.267181 -8.97494e-05)
(0.0236556 0.133952 -3.9069e-05)
(0.0496259 0.266977 -5.94726e-05)
(0.0237001 0.134044 -3.35548e-05)
(0.0428094 0.155291 -3.00989e-05)
(0.0394416 0.142931 -4.20517e-05)
(0.0663232 0.241789 -0.000384113)
(0.0688114 0.250843 -0.000391133)
(0.0323037 0.112878 -0.000184646)
(0.0363786 0.131103 -0.00020949)
(0.0382832 0.133776 -0.000203357)
(0.0380881 0.137258 -0.000214632)
(0.276306 0.811128 -0.000156073)
(0.276032 0.810264 -0.000108125)
(0.286689 0.666052 -0.000102955)
(0.286387 0.665345 -9.47874e-05)
(-0.188529 1.74766 -0.000152729)
(-0.0629034 1.53864 -0.00017314)
(1.39084 0.922141 -0.000263524)
(-0.878919 2.85879 -0.000419087)
(-0.0661671 1.61833 -0.000228593)
(-0.206581 1.91398 -0.000319585)
(0.0692913 0.254079 2.32949e-05)
(0.0667237 0.244644 2.10189e-05)
(0.0387247 0.140455 1.80078e-05)
(0.036968 0.130062 7.95438e-06)
(0.0312822 0.110004 1.77434e-05)
(0.0366454 0.132898 1.71107e-05)
(0.41046 2.42817 -0.00349141)
(0.386388 2.28559 -0.00332083)
(-0.000653134 -0.00681448 2.24834e-05)
(-0.00334261 -0.0223754 4.63196e-05)
(-0.0279922 -0.175653 0.000264786)
(-0.0248818 -0.156503 0.000233598)
(-0.00810371 -0.0499194 8.88422e-05)
(-0.0045859 -0.0295678 5.70593e-05)
(1.35065 0.894227 -0.0015424)
(1.36054 0.900797 -0.0015545)
(1.36741 0.905371 -0.00156144)
(1.36122 0.901255 -0.00155518)
(-0.0220752 -0.130734 0.000215324)
(-0.0163619 -0.0976875 0.000162932)
(0.351206 2.07644 -0.00299912)
(0.376744 2.22828 -0.00323925)
(-0.093143 -0.749404 0.00108214)
(-0.0294121 -0.184395 0.000278471)
(-0.0334896 -0.209496 0.000318668)
(-0.0097354 -0.0593588 0.000103191)
(-0.014331 -0.0859411 0.000144741)
(0.198069 0.858485 -0.00129833)
(0.517627 2.53628 -0.00372033)
(0.190467 0.825698 -0.00124634)
(0.481687 2.35945 -0.00349409)
(0.283704 2.41353 -0.00346053)
(0.292029 2.48476 -0.00357286)
(0.0648064 0.26487 -1.67783e-05)
(0.0524717 0.194448 -0.000267144)
(0.055285 0.204914 -0.000284024)
(0.0608872 0.248757 -0.000647105)
(0.0961138 0.420382 -0.000554487)
(0.0638552 0.292563 -0.000372814)
(0.091707 0.40096 -0.000522029)
(0.0679117 0.311332 -0.00040361)
(0.0585839 0.217189 -0.000303576)
(0.0562235 0.208406 -0.000289765)
(0.0695844 0.284519 -2.32558e-05)
(-0.00224394 1.37288 -0.00190704)
(0.0576004 0.861404 -0.0012119)
(0.0589028 0.880994 -0.00123852)
(-0.00219197 1.34605 -0.00186957)
(-0.0639018 1.57951 -0.00218008)
(1.34811 0.892525 -0.00153604)
(-0.064629 1.59727 -0.00220641)
(-0.00226223 1.38211 -0.00191948)
(0.0603621 0.902977 -0.00126908)
(-0.00229252 1.39532 -0.00193903)
(0.0593327 0.887465 -0.00124744)
(-0.0634706 1.56893 -0.00216566)
(1.3451 0.890532 -0.00153174)
(-0.062279 1.53967 -0.00212453)
(0.317783 2.70465 -0.00385262)
(0.31192 2.65454 -0.0037864)
(0.0421345 0.15599 -0.000204474)
(0.0464082 0.171889 -0.000230445)
(0.0544005 0.222088 -0.000568966)
(0.0512631 0.189951 -0.000259999)
(0.059081 0.24133 -8.92656e-06)
(0.0478596 0.177288 -0.000239209)
(0.0802927 0.350643 -0.00043966)
(0.0584743 0.267665 -0.000333027)
(0.0854961 0.373584 -0.000477926)
(0.053751 0.245803 -0.00029667)
(-0.0573711 1.419 -0.00195589)
(-0.0596287 1.47458 -0.00203163)
(1.32355 0.87623 -0.0014996)
(0.0521652 0.779735 -0.0010996)
(-0.00196951 1.2272 -0.00170393)
(-0.00206992 1.28247 -0.00177928)
(0.0544996 0.814785 -0.00114742)
(-0.00210049 1.29876 -0.00180223)
(0.0570414 0.852978 -0.00120045)
(0.0553001 0.826809 -0.00116368)
(-0.0021682 1.33454 -0.0018539)
(-0.0602954 1.49097 -0.00205475)
(1.32886 0.879744 -0.0015065)
(-0.0618004 1.52796 -0.00210872)
(0.0757568 0.296699 -0.000491231)
(0.0760258 0.297615 -0.000492579)
(0.0559417 0.204286 -0.000356223)
(0.0561225 0.205088 -0.000359989)
(0.0759506 0.297641 -0.000491944)
(0.242209 1.1414 -0.0017296)
(0.406604 1.98931 -0.00299929)
(0.227726 1.02673 -0.00157505)
(0.176606 0.763728 -0.00120244)
(0.177637 0.768354 -0.00120604)
(0.234961 1.05993 -0.00162171)
(0.414864 2.03009 -0.0030279)
(0.253972 1.19734 -0.00180577)
(0.0774801 0.303066 -0.000495498)
(0.0770733 0.301523 -0.000494923)
(0.0760543 0.297677 -0.000492168)
(0.0560293 0.204559 -0.000355444)
(0.0575815 0.210094 -0.00035852)
(0.264309 1.76014 -0.00255204)
(0.421513 2.62852 -0.00382907)
(0.27746 1.639 -0.0023921)
(0.284128 1.67854 -0.00244716)
(0.452285 2.82091 -0.00407955)
(0.442517 2.75992 -0.00400008)
(0.271016 1.80494 -0.00260311)
(-0.00207501 -0.0140094 5.06905e-05)
(-0.0266133 -0.156984 0.000256768)
(0.0507338 0.247778 -0.000289359)
(0.00543158 0.0262365 -1.72812e-06)
(-0.0290698 -0.171191 0.000279701)
(-0.00975537 -0.0557528 0.000117546)
(-0.0657988 -0.436536 0.000675647)
(-0.0537903 -0.334526 0.000526895)
(-0.065848 -0.47826 0.000716356)
(-0.0519996 -0.323462 0.000505196)
(-0.0617461 -0.409751 0.000623821)
(0.463596 2.89165 -0.00417433)
(0.473003 2.9505 -0.00425071)
(0.294606 1.9626 -0.00281106)
(0.288604 1.92249 -0.00275772)
(-0.0216073 -0.12033 0.000228882)
(-0.0386183 -0.226472 0.000373607)
(0.0440819 0.214725 -0.000235698)
(0.00211919 0.00871901 2.64381e-05)
(0.0378325 0.183657 -0.000185868)
(-0.0362154 -0.212533 0.000348515)
(-0.0127872 -0.0722348 0.000144467)
(0.0294917 0.106477 -0.000190874)
(0.0298192 0.107748 -0.000194714)
(0.0295252 0.106569 -0.000190174)
(0.0304766 0.109923 -0.000191707)
(0.116838 0.342018 -0.000434802)
(0.142556 0.417518 -0.000565337)
(0.190644 0.44216 -0.000638696)
(0.185311 0.429781 -0.000618585)
(0.157929 0.366221 -0.000515312)
(0.166068 0.385123 -0.000549768)
(0.14952 0.437971 -0.000600151)
(-0.599805 1.95394 -0.00256328)
(1.30975 0.867042 -0.00147272)
(-0.0559816 1.38491 -0.00190639)
(-0.167702 1.56087 -0.00212568)
(-0.572275 1.86443 -0.00250567)
(-0.502618 1.63691 -0.00205143)
(-0.520692 1.69612 -0.00222944)
(-0.145048 1.35076 -0.00183438)
(-0.0501768 1.24211 -0.00170381)
(1.29236 0.855494 -0.00142694)
(-0.555077 1.80854 -0.00237718)
(0.0880731 0.321138 -0.000448781)
(0.0811352 0.295819 -0.000430101)
(0.144704 0.136315 -0.000225629)
(0.397587 -0.165094 0.000158895)
(0.383093 -0.159074 0.000151594)
(0.158807 0.149613 -0.000241616)
(0.0546332 0.19104 -0.000256016)
(0.0509083 0.183525 -0.000254125)
(0.0463334 0.167007 -0.000241617)
(0.0410582 0.14348 -0.000211557)
(0.190567 0.17955 -0.00028266)
(0.415139 -0.172373 0.00015687)
(0.433456 -0.179942 0.00015613)
(0.174898 0.164784 -0.000260283)
(0.627619 3.07897 -0.00187426)
(0.211089 0.916335 -0.000545545)
(0.235732 1.02312 -0.000687327)
(0.657149 3.22374 -0.00225788)
(0.25605 1.11061 -0.00120034)
(0.625643 3.06814 -0.00307457)
(0.227372 0.986504 -0.000976495)
(0.651755 3.19553 -0.00346076)
(0.21733 0.942386 -0.00127206)
(0.624824 3.06293 -0.00394037)
(0.244538 1.06054 -0.00136111)
(0.609213 2.98609 -0.00394317)
(-0.0657792 -0.532186 0.000295347)
(-0.0333207 -0.244323 0.000146295)
(-0.0473813 -0.345252 0.00048373)
(-0.0597748 -0.434516 0.000639742)
(-0.0973683 -0.783076 0.00114006)
(-0.0526791 -0.51824 0.000478853)
(-0.00530134 -0.160472 0.000156976)