/*--------------------------------*- C++ -*----------------------------------*\
| =========                 |                                                 |
| \\      /  F ield         | OpenFOAM: The Open Source CFD Toolbox           |
|  \\    /   O peration     | Version:  2306                                  |
|   \\  /    A nd           | Website:  www.openfoam.com                      |
|    \\/     M anipulation  |                                                 |
\*---------------------------------------------------------------------------*/
FoamFile
{
    version     2.0;
    format      ascii;
    arch        "LSB;label=32;scalar=64";
    class       volScalarField;
    location    "1.15";
    object      p;
}
// * * * * * * * * * * * * * * * * * * * * * * * * * * * * * * * * * * * * * //

dimensions      [0 2 -2 0 0 0 0];

internalField   nonuniform List<scalar> 
111542
(
59.4678
60.783
63.9133
69.0345
76.2368
85.7448
97.7314
112.24
128.789
145.963
161.209
170.516
169.83
157.911
137.747
114.976
93.5125
74.8562
59.2138
46.5191
36.444
28.6855
22.849
18.4196
15.063
12.4993
10.441
8.84692
7.65988
6.74704
6.02163
5.42505
4.96806
4.57932
4.20679
3.80857
3.33155
2.77109
2.02668
1.00801
58.4315
59.708
62.8086
67.8723
75.0699
84.7297
97.2352
112.849
131.413
151.862
171.506
184.786
184.107
168.132
142.596
116.043
92.5653
72.8541
56.7664
44.022
34.2033
26.7863
21.2264
17.1315
14.064
11.6916
9.83603
8.40737
7.3119
6.4524
5.7621
5.19943
4.7388
4.33955
3.96164
3.56743
3.11381
2.55622
1.82459
0.861915
56.3781
57.5896
60.5521
65.4388
72.5293
82.3427
95.5999
113.117
135.561
162.777
191.437
212.951
213.085
187.841
151.908
118.91
91.6415
69.8216
52.8353
39.937
30.4071
23.663
18.7912
15.2192
12.3289
9.98537
8.21503
6.92489
5.97121
5.2484
4.6935
4.26368
3.92328
3.63906
3.37582
3.09757
2.76029
2.30836
1.66763
0.756821
53.3578
54.4444
57.1177
61.5956
68.267
77.8654
91.5459
111.013
138.675
177.783
212.9
255.64
261.363
220.599
168.517
128.133
95.1542
69.9344
51.3543
37.8018
24.0491
17.8456
15.1669
13.5767
11.517
9.43139
7.77582
6.53239
5.56264
4.78724
4.16989
3.68045
3.28925
2.96608
2.68221
2.40643
2.09439
1.68502
1.08335
0.159286
49.4783
50.3585
52.539
56.2516
61.9359
70.4384
83.2046
102.656
132.811
177.58
254.517
340.829
364.877
257.164
172.543
123.717
84.2691
57.5331
39.8714
28.5294
21.3126
6.95838
5.98079
6.36614
5.62676
4.74178
4.1151
3.65271
3.26475
2.93744
2.67204
2.45983
2.28985
2.14755
2.02074
1.89207
1.73025
1.48135
1.02728
0.0730501
44.932
45.5168
46.978
49.5045
53.4692
59.6036
69.2303
84.7884
111.012
165.538
259.017
453.834
620.095
248.332
174.708
115.086
67.7008
41.2784
25.762
16.4646
13.9762
12.3097
11.7751
7.5242
4.55404
3.14794
2.40618
1.8682
1.44948
1.14855
0.945771
0.812
0.724782
0.668959
0.633072
0.605947
0.575498
0.532127
0.490859
0.609438
40.0063
40.2259
40.7807
41.7589
43.3372
45.8467
49.8582
56.3316
66.9101
105.898
180.841
409.075
1953.28
-416.651
201.931
79.0872
31.9118
16.3474
7.96265
-1.57076
-6.20419
15.6052
14.8934
9.17278
5.67068
4.21714
3.5111
3.00515
2.61935
2.34963
2.16681
2.03587
1.9352
1.85148
1.77756
1.70851
1.63249
1.54411
1.4433
1.37335
35.0698
34.8954
34.4637
33.7382
32.6439
30.9988
28.3855
23.8337
14.9118
16.6946
-1.18711
-164.898
-1002.57
-1035.3
-310.923
-100.509
-45.7978
-25.702
-16.6743
-10.5059
-3.91616
-8.71455
-6.79913
-5.01708
-3.9793
-2.94925
-1.96421
-1.1706
-0.560246
-0.0752127
0.320532
0.643493
0.905041
1.11355
1.27464
1.38848
1.44109
1.402
1.20509
0.7222
30.5238
29.9811
28.6216
26.3052
22.7555
17.407
9.2271
-3.69174
-24.9883
-48.5488
-122.44
-267.013
-475.623
-502.636
-318.541
-174.437
-100.26
-61.204
-39.3014
-25.4254
-15.5842
-9.03987
-4.89991
-1.89934
-0.104089
0.998649
1.7779
2.33575
2.71399
2.96239
3.12204
3.21745
3.26187
3.26184
3.21756
3.12269
2.95415
2.66393
2.1577
1.24539
26.7564
25.9038
23.79
20.2032
14.7555
6.71396
-5.13503
-22.7684
-49.4658
-90.8129
-148.672
-221.363
-286.494
-294.602
-237.585
-165.164
-110.289
-74.9362
-51.9139
-35.9268
-24.6063
-17.1095
-12.0319
-8.37388
-5.7633
-3.88807
-2.46757
-1.35684
-0.489827
0.184309
0.71091
1.12338
1.44227
1.67863
1.83347
1.90184
1.86185
1.67165
1.27061
0.608075
24.0699
23.0043
20.3703
15.9327
9.26226
-0.373667
-14.0856
-33.37
-60.0933
-96.1126
-141.381
-190.677
-229.314
-236.66
-206.733
-158.487
-114.471
-82.1866
-59.3974
-42.7353
-30.3322
-21.2409
-14.5517
-9.61112
-5.98106
-3.3307
-1.38326
0.058477
1.12183
1.89694
2.45395
2.84528
3.10635
3.25743
3.29888
3.2425
3.06556
2.72157
2.13657
1.17507
22.6732
21.5091
18.6003
13.7623
6.49252
-3.84793
-18.283
-37.9629
-64.0507
-96.9072
-135.04
-173.061
-201.045
-207.491
-188.263
-152.802
-115.699
-85.4044
-62.7585
-45.7824
-32.9239
-23.2955
-16.2082
-11.0259
-7.28186
-4.5639
-2.57373
-1.10212
-0.00739904
0.807151
1.41146
1.85602
2.17616
2.39681
2.46517
2.45779
2.33381
2.04293
1.53342
0.7469
58.8768
60.137
63.1873
68.1351
75.0871
84.2608
95.8622
109.893
125.879
142.5
157.274
166.287
165.555
153.979
134.435
112.335
91.5019
73.3197
58.0335
45.5867
35.7385
28.1314
22.3588
18.0104
14.7071
12.1433
10.1254
8.56679
7.38606
6.48407
5.7825
5.2282
4.78751
4.41423
4.0649
3.69932
3.27357
2.74026
2.02023
1.01333
57.8529
59.0897
62.0912
66.9838
73.9361
83.2693
95.3617
110.464
128.433
148.259
167.34
180.291
179.441
163.846
139.058
113.325
90.5315
71.3132
55.5837
43.1106
33.4989
26.2024
20.7129
16.6811
13.6606
11.3149
9.48658
8.08366
7.01009
6.17539
5.51475
4.98467
4.55169
4.17906
3.83115
3.47128
3.05834
2.53967
1.84493
0.896091
55.83
57.0054
59.8682
64.5878
71.4363
80.919
93.7398
110.699
132.46
158.893
186.747
207.633
207.748
183.015
148.073
116.129
89.649
68.3384
51.6972
39.058
29.7294
23.0659
18.2325
14.6724
11.7911
9.47355
7.74624
6.50861
5.60992
4.94083
4.43676
4.0532
3.75369
3.50517
3.27656
3.03441
2.73897
2.33348
1.73676
0.836726
52.857
53.9104
56.4905
60.8103
67.2492
76.5222
89.7589
108.634
135.53
173.68
209.249
251.284
256.665
216.081
165.108
125.804
93.5309
68.701
50.3678
36.9818
23.0037
16.845
14.4049
12.8998
10.8261
8.75056
7.14795
5.9792
5.08948
4.39175
3.84525
3.41666
3.07668
2.79703
2.55321
2.31909
2.0581
1.7111
1.17753
0.291524
49.0415
49.8921
51.9917
55.5656
61.0431
69.2514
81.6084
100.503
129.923
174.743
250.805
336.087
358.966
251.165
168.549
121.733
83.0419
56.5084
38.9139
27.5181
19.6452
4.89219
4.27794
4.96828
4.40947
3.70141
3.25402
2.94987
2.69119
2.4659
2.27826
2.12244
1.99273
1.88015
1.778
1.67886
1.56271
1.38202
1.01605
0.128331
44.5741
45.1352
46.5342
48.9533
52.7585
58.6665
67.9815
83.1243
108.826
163.325
256.646
450.301
614.136
240.537
168.575
114.381
67.4289
40.8893
25.1604
15.4587
8.30036
11.8941
11.0925
6.55635
3.5719
2.3032
1.73561
1.3596
1.07373
0.871157
0.733588
0.637413
0.570219
0.52486
0.499168
0.492948
0.505917
0.539431
0.605629
0.774584
39.7287
39.9415
40.4585
41.3707
42.8556
45.2412
49.0995
55.4099
65.8824
104.891
180.027
408.979
1940.66
184.495
81.4395
31.7517
15.2489
7.03606
-2.57038
-9.66023
15.3982
14.6306
8.76104
5.27285
3.86839
3.16172
2.61083
2.16021
1.82105
1.57285
1.3867
1.2463
1.14033
1.06456
1.01695
0.994791
0.998575
1.03619
1.14845
34.879
34.7119
34.2689
33.5242
32.411
30.7573
28.1682
23.7276
15.1178
17.0566
-0.122559
-160.58
-982.085
-1020.27
-306.406
-98.409
-44.7599
-25.4219
-16.774
-10.6232
-2.46356
-8.27773
-6.66216
-5.13074
-4.14618
-3.11396
-2.14036
-1.36709
-0.775338
-0.306258
0.0747164
0.384427
0.636076
0.83941
1.00419
1.13553
1.22681
1.2517
1.14082
0.722549
30.4251
29.8922
28.5445
26.2536
22.7535
17.4976
9.48913
-3.11717
-23.8538
-47.2735
-119.593
-261.84
-467.551
-492.411
-312.708
-170.976
-98.2341
-60.1346
-38.8109
-25.244
-15.3481
-9.04376
-5.14599
-2.26515
-0.460482
0.667511
1.44779
1.98696
2.33607
2.55082
2.67709
2.74352
2.76639
2.7547
2.7115
2.63358
2.50158
2.27117
1.85243
1.06799
26.7292
25.8906
23.8157
20.2907
14.9451
7.07185
-4.50605
-21.7057
-47.7133
-87.9896
-144.378
-215.328
-279.155
-286.921
-231.254
-160.84
-107.672
-73.4754
-51.1655
-35.6317
-24.5974
-17.2574
-12.2793
-8.65502
-6.04916
-4.17386
-2.75403
-1.64647
-0.786073
-0.121306
0.395046
0.797945
1.10957
1.34258
1.50132
1.58281
1.56865
1.42084
1.08435
0.518879
24.0979
23.0546
20.4706
16.1159
9.58665
0.165165
-13.2229
-32.0303
-58.0649
-93.142
-137.223
-185.228
-222.971
-230.328
-201.265
-154.513
-111.888
-80.6296
-58.5175
-42.3069
-30.2127
-21.3226
-14.7459
-9.87713
-6.29361
-3.67145
-1.74014
-0.309536
0.742867
1.506
2.051
2.43152
2.68415
2.83123
2.88137
2.83791
2.68377
2.37948
1.86127
1.02279
22.7343
21.5829
18.745
13.9842
6.88985
-3.2203
-17.3103
-36.5093
-61.9045
-93.926
-131.086
-168.156
-195.511
-202.016
-183.526
-149.106
-113.128
-83.7841
-61.7978
-45.2735
-32.7225
-23.3048
-16.3551
-11.275
-7.57609
-4.88058
-2.9034
-1.43917
-0.349479
0.460413
1.05989
1.49943
1.81332
2.02069
2.1212
2.12663
2.01842
1.75983
1.31015
0.645002
57.7582
58.9378
61.7933
66.4119
72.8956
81.4485
92.2658
105.338
120.222
135.704
149.444
157.773
157.011
146.083
127.695
106.912
87.267
70.0227
55.4564
43.5656
34.1511
26.8478
21.2717
17.0766
13.9024
11.4422
9.5134
8.01573
6.86591
5.98107
5.29171
4.74684
4.30729
3.93742
3.602
3.26413
2.88212
2.40402
1.76095
0.863338
56.7618
57.9215
60.7261
65.2905
71.7726
80.4721
91.7424
105.817
122.566
141.062
158.902
170.833
170.011
155.257
131.93
107.771
86.2824
68.037
53.043
41.1491
31.9903
24.9637
19.6596
15.8073
12.9468
10.7121
8.94689
7.56981
6.49784
5.6542
4.98245
4.44273
4.00216
3.62954
3.29457
2.9643
2.6
2.15022
1.54847
0.724702
54.7962
55.8976
58.5675
62.9639
69.3414
78.1726
90.1174
105.932
126.259
151.011
177.151
196.902
196.693
173.115
140.261
110.367
85.3997
65.1216
49.233
37.2108
28.472
22.0277
17.2906
13.8949
11.2063
9.02804
7.3673
6.14437
5.23142
4.53447
3.99863
3.5855
3.26241
3.00195
2.77771
2.56209
2.31976
1.99792
1.51358
0.740459
51.9118
52.8956
55.2946
59.3073
65.2899
73.9133
86.2433
103.874
129.099
165.089
200.199
240.485
245.222
205.725
157.27
120.342
89.6012
65.7291
48.0602
35.1933
21.5717
15.9397
13.7514
12.3022
10.1852
8.02777
6.32547
5.05419
4.07262
3.30208
2.70408
2.24602
1.89793
1.63233
1.42699
1.26072
1.10479
0.909316
0.582819
-0.0261115
48.2184
49.0064
50.9474
54.2495
59.3175
66.9313
78.438
96.1286
123.884
167.687
241.195
323.869
344.849
238.667
160.736
117.216
79.895
53.9621
36.7421
25.6516
18.2126
3.49127
4.07967
5.25518
4.59935
3.62966
2.92534
2.3976
1.95313
1.58124
1.28334
1.05127
0.878016
0.753036
0.672755
0.63553
0.636428
0.647324
0.567979
0.044456
43.8802
44.4105
45.6879
47.8947
51.3807
56.8261
65.4816
79.694
104.134
157.593
249.499
440.088
597.896
225.553
163.797
112.268
65.8236
39.1662
23.408
13.8226
7.63701
7.69975
7.80623
3.57049
0.444996
-1.05546
-1.78719
-2.24771
-2.55523
-2.73123
-2.80645
-2.81823
-2.77617
-2.69394
-2.57193
-2.40095
-2.1597
-1.8092
-1.2626
-0.256067
39.2106
39.3971
39.839
40.6227
41.9197
44.0476
47.566
53.4728
63.578
102.185
177.399
407.491
1915.64
205.984
81.7484
31.5244
14.7668
6.26353
-3.63288
-9.32589
12.6387
11.2778
5.07875
1.60329
0.332754
-0.201915
-0.560464
-0.815334
-0.971056
-1.05562
-1.09874
-1.11494
-1.10327
-1.05812
-0.965346
-0.801425
-0.534117
-0.106356
0.566217
34.5317
34.3564
33.8906
33.1097
31.9563
30.2756
27.7159
23.4623
15.4273
17.8582
2.71826
-150.334
-959.641
-1000.31
-295.503
-92.1077
-41.9084
-24.662
-17.0568
-11.5062
-4.40244
-9.10283
-8.23725
-7.17372
-6.16977
-4.9875
-3.87478
-2.98035
-2.2812
-1.7199
-1.25932
-0.878388
-0.561437
-0.293488
-0.0535037
0.17306
0.396697
0.607244
0.744005
0.586753
30.236
29.7129
28.3958
26.1556
22.7502
17.6729
9.99918
-1.98603
-21.5787
-44.0396
-112.726
-249.227
-448.381
-472.908
-298.462
-162.32
-93.5846
-57.8773
-37.8978
-25.1219
-15.7926
-10.1357
-6.49655
-3.74107
-1.97454
-0.840203
-0.0226826
0.574805
0.992745
1.2788
1.47597
1.61103
1.70062
1.75553
1.78697
1.79874
1.78274
1.70645
1.48612
0.930993
26.677
25.8686
23.8585
20.4527
15.3067
7.76116
-3.28215
-19.6124
-44.2139
-82.2486
-135.546
-202.852
-263.765
-271.464
-218.778
-152.409
-102.608
-70.6338
-49.6819
-35.0361
-24.6528
-17.862
-12.9485
-9.34321
-6.81723
-5.00695
-3.60292
-2.477
-1.58265
-0.877649
-0.317842
0.129573
0.487171
0.766661
0.978909
1.12484
1.19283
1.15193
0.948372
0.519569
24.1454
23.1397
20.6518
16.4637
10.2031
1.19742
-11.5551
-29.4119
-54.0641
-87.2267
-128.901
-174.367
-210.365
-217.685
-190.508
-146.618
-106.677
-77.3825
-56.5722
-41.2496
-29.7944
-21.351
-14.9932
-10.2673
-6.8162
-4.29674
-2.42507
-1.02002
0.0280503
0.800333
1.36397
1.76994
2.05389
2.23774
2.33488
2.34753
2.26384
2.05218
1.65448
0.96218
22.8355
21.7267
18.9985
14.4248
7.63442
-2.01971
-15.432
-33.6601
-57.7155
-88.0194
-123.186
-158.331
-184.421
-190.929
-173.844
-141.664
-107.955
-80.4144
-59.6905
-44.0423
-32.1171
-23.1388
-16.4663
-11.5509
-7.95897
-5.34302
-3.42011
-1.98457
-0.903811
-0.0892804
0.524047
0.984198
1.32409
1.56274
1.70915
1.76331
1.71386
1.53377
1.18669
0.640418
56.207
57.2747
59.85
64.0081
69.8353
77.5075
87.1909
98.8649
112.124
125.879
138.03
145.285
144.438
134.448
117.772
98.9357
81.0343
65.1895
51.7168
40.6786
31.9155
25.0578
19.7277
15.6499
12.5592
10.189
8.35258
6.93724
5.85621
5.03099
4.39584
3.90069
3.50651
3.18093
2.89376
2.6135
2.30284
1.91593
1.39334
0.660292
55.2481
56.2973
58.8232
62.9258
68.7424
76.5343
86.6085
99.1623
114.073
130.513
146.385
156.702
155.858
142.424
121.342
99.5278
79.9703
63.2017
49.3502
38.3575
29.8916
23.2228
18.0418
14.2487
11.4731
9.3407
7.67126
6.37818
5.38226
4.61011
4.00622
3.53
3.1487
2.83328
2.55821
2.29671
2.01706
1.67499
1.21026
0.555356
53.3603
54.3546
56.7512
60.6892
66.3931
74.2786
84.9272
99.0075
117.094
139.127
162.403
180.077
179.459
157.945
128.443
101.62
78.9262
60.2796
45.6229
34.6187
26.8502
20.4793
15.3412
11.8328
9.35291
7.44583
5.99576
4.92566
4.13144
3.53114
3.07465
2.72737
2.46187
2.25442
2.0872
1.94123
1.79289
1.59892
1.27906
0.677458
50.5949
51.4805
53.6214
57.1944
62.516
70.1801
81.1349
96.8082
119.288
151.53
185.061
222.072
225.879
188.842
144.78
111.45
83.0851
60.864
44.4094
32.5262
19.9006
14.2918
11.094
9.21682
7.34443
5.60823
4.27156
3.29
2.5416
1.95556
1.498
1.14842
0.884344
0.685312
0.545207
0.457979
0.416891
0.394731
0.316522
-0.0108945
47.0596
47.7675
49.4816
52.3911
56.8582
63.5772
73.7572
89.4722
114.313
155.597
223.755
301.245
319.797
218.319
148.427
109.408
74.0257
49.3337
33.0409
22.6124
15.2043
-2.25047
-0.567978
1.76033
1.7987
1.22793
0.771037
0.409593
0.0813572
-0.209715
-0.454304
-0.643798
-0.784895
-0.879461
-0.915279
-0.87627
-0.737622
-0.485074
-0.16893
-0.125417
42.9326
43.3925
44.4923
46.3909
49.4019
54.1357
61.7206
74.3115
96.3024
146.962
235.15
419.307
567.495
200.156
153.172
109.18
61.9584
35.095
19.6788
10.3721
1.90775
-5.76604
-1.73953
-1.62819
-2.62486
-3.15404
-3.37828
-3.57433
-3.77298
-3.93822
-4.05724
-4.14732
-4.18934
-4.18496
-4.11586
-3.94743
-3.61944
-3.02509
-1.98002
-0.215233
38.4854
38.6322
38.9634
39.5562
40.5663
42.2785
45.2043
50.296
59.3651
96.357
170.44
403.326
1869.16
197.334
94.0252
33.367
12.7832
2.93065
-7.5675
-15.1413
14.2433
11.5506
4.49371
0.447978
-1.41919
-2.47797
-3.23751
-3.78997
-4.16504
-4.4062
-4.54576
-4.61258
-4.61727
-4.53938
-4.35306
-4.00351
-3.39857
-2.3946
-0.853384
34.0449
33.8555
33.353
32.5141
31.2882
29.5356
26.9522
22.8407
15.4173
18.2185
5.97465
-132.774
-904.515
-957.338
-271.055
-81.9273
-39.2937
-25.0602
-18.6068
-13.4875
-5.04677
-8.30641
-7.67825
-7.01335
-6.24274
-5.28453
-4.36703
-3.62457
-3.04905
-2.59608
-2.23362
-1.92991
-1.6895
-1.48351
-1.27666
-1.03974
-0.738003
-0.342323
0.121634
0.374573
29.9683
29.4587
28.1786
26.005
22.7238
17.8829
10.6591
-0.46764
-18.4251
-39.1952
-102.107
-228.441
-415.25
-438.455
-273.625
-148.579
-86.9171
-55.0048
-36.9938
-25.3764
-16.9075
-12.2233
-7.61487
-4.27224
-2.51435
-1.58212
-0.961629
-0.529747
-0.252013
-0.0807588
0.0285409
0.103398
0.155797
0.201436
0.255779
0.329378
0.426694
0.536519
0.597102
0.44578
26.5959
25.8247
23.9066
20.6673
15.7986
8.71062
-1.5781
-16.6604
-39.1958
-73.8196
-122.3
-183.708
-239.531
-246.972
-199.486
-139.8
-95.2542
-66.5566
-47.5635
-34.2189
-24.8244
-18.8055
-13.4789
-9.53655
-7.0218
-5.33317
-4.03374
-2.98879
-2.16302
-1.5163
-1.00402
-0.592675
-0.261435
0.00533912
0.223453
0.398721
0.528429
0.594517
0.553606
0.347724
24.199
23.2451
20.8892
16.934
11.0474
2.62619
-9.22622
-25.7172
-48.3519
-78.6666
-116.681
-158.18
-191.27
-198.386
-174.186
-134.846
-99.0279
-72.6255
-53.6918
-39.6528
-29.1363
-21.3426
-15.2115
-10.5462
-7.17398
-4.75532
-2.97674
-1.6512
-0.672016
0.0411867
0.556473
0.926048
1.18622
1.36098
1.46748
1.51086
1.48434
1.36594
1.11215
0.654357
22.9608
21.9117
19.3354
15.0282
8.65882
-0.354886
-12.8146
-29.658
-51.7814
-79.5532
-111.724
-143.906
-167.963
-174.346
-159.359
-130.648
-100.385
-75.4851
-56.5799
-42.1935
-31.1749
-22.8294
-16.5241
-11.7645
-8.24741
-5.69714
-3.83696
-2.45515
-1.41912
-0.642463
-0.0609141
0.374133
0.696433
0.927574
1.08001
1.15626
1.14868
1.03915
0.803555
0.438437
54.3467
55.2773
57.5134
61.114
66.1429
72.7361
81.0153
90.9355
102.12
113.616
123.631
129.447
128.378
119.553
105.086
88.7477
73.0794
59.0415
46.9812
37.0326
29.1103
22.9064
18.0511
14.2704
11.3659
9.13526
7.41195
6.08393
5.06642
4.28823
3.69059
3.22527
2.85436
2.5509
2.29457
2.05909
1.80737
1.50669
1.1061
0.527529
53.4313
54.3456
56.533
60.0747
65.0781
71.7501
80.3284
90.9467
103.457
117.113
130.078
138.369
137.318
125.632
107.555
88.8101
71.779
56.9695
44.6271
34.8012
27.2696
21.3561
16.6965
13.1371
10.455
8.38179
6.75783
5.49767
4.525
3.77579
3.19943
2.7529
2.39822
2.11194
1.8755
1.6668
1.46461
1.23038
0.913273
0.436896
51.6353
52.4982
54.5614
57.9391
62.8126
69.5168
78.5154
90.3304
105.39
123.594
142.74
156.879
155.719
137.284
112.428
89.6955
70.0969
53.7317
40.7693
31.1273
24.757
19.3532
14.421
10.8794
8.46318
6.67122
5.30284
4.27446
3.49179
2.89245
2.42669
2.06537
1.79496
1.59198
1.4413
1.33295
1.25808
1.18751
1.05425
0.66975
49.0123
49.7743
51.5982
54.6298
59.1277
65.5739
74.7346
87.7548
106.314
132.824
163.192
194.381
196.853
164.44
127.113
98.5105
73.5619
53.9305
39.3652
29.0931
19.6603
16.9022
11.572
7.7129
5.13577
3.27079
1.95036
1.03091
0.379908
-0.0999558
-0.454989
-0.707247
-0.873137
-0.977449
-1.02043
-0.990613
-0.871635
-0.653378
-0.357807
-0.15526
45.6695
46.2696
47.7032
50.1256
53.8345
59.3962
67.7918
80.7088
101.109
137.66
195.642
262.695
277.753
187.837
131.293
96.2534
64.0404
41.9281
27.5687
18.9562
15.6311
7.05212
5.09393
3.72912
2.14345
0.723883
-0.309111
-1.08107
-1.70111
-2.20783
-2.61672
-2.92442
-3.1417
-3.28272
-3.33201
-3.24637
-2.9716
-2.42013
-1.51487
-0.494031
41.7822
42.1567
43.0358
44.5479
46.951
50.7399
56.8277
66.98
84.8586
129.602
208.773
376.499
511.316
170.269
154.546
97.2235
51.4525
26.4816
12.6418
4.46311
-5.7341
-33.7866
-29.6922
-26.9662
-25.6483
-24.3388
-23.1285
-22.1452
-21.3342
-20.6215
-19.9698
-19.38
-18.811
-18.2241
-17.5859
-16.8389
-15.864
-14.4124
-11.9262
-7.01656
37.6031
37.7
37.8914
38.2402
38.8727
40.0097
42.0563
45.7832
52.7161
85.4087
153.194
374.156
1793.26
276.439
73.6447
18.014
-0.612335
-8.74127
-14.5992
-18.2512
-0.98734
-3.92964
-9.16629
-11.8358
-12.8796
-13.3681
-13.6544
-13.7901
-13.794
-13.7021
-13.5594
-13.3375
-13.0472
-12.6708
-12.1514
-11.3795
-10.129
-7.97353
-4.26364
33.4415
33.2379
32.6876
31.7681
30.4318
28.548
25.8447
21.723
14.7063
17.0429
6.71904
-117.758
-830.587
-858.654
-232.261
-73.7093
-40.7497
-29.524
-23.6833
-18.5785
-13.2562
-22.0316
-17.9475
-14.1382
-11.9033
-10.2828
-9.00169
-8.03813
-7.32606
-6.78742
-6.3686
-6.0249
-5.74108
-5.48176
-5.20509
-4.85864
-4.37024
-3.62884
-2.51364
-1.08805
29.6311
29.1384
27.8954
25.7942
22.65
18.0735
11.3621
1.23828
-14.7388
-33.2104
-88.0286
-198.519
-362.813
-380.736
-236.3
-130.634
-79.2722
-52.1909
-36.487
-26.4776
-20.7414
-19.5067
-12.8803
-7.6916
-5.14051
-3.82883
-2.95815
-2.34922
-1.94506
-1.67897
-1.49471
-1.3599
-1.25552
-1.15341
-1.03303
-0.870933
-0.639479
-0.313019
0.0920581
0.383186
26.4804
25.7522
23.9422
20.8971
16.3562
9.81443
0.440033
-13.1006
-33.0178
-63.1558
-104.955
-157.643
-205.365
-212.266
-172.967
-123.302
-85.9618
-61.4443
-44.8666
-33.1523
-25.1575
-20.5319
-15.2036
-10.9254
-8.17486
-6.31967
-4.88867
-3.74456
-2.84793
-2.15136
-1.60515
-1.1706
-0.825086
-0.54167
-0.301551
-0.0895095
0.104128
0.277731
0.399623
0.374674
24.2434
23.3511
21.1508
17.4716
12.0323
4.31732
-6.43419
-21.233
-41.3204
-67.9419
-101.045
-136.974
-165.74
-172.372
-152.427
-119.559
-89.2721
-66.5281
-49.899
-37.4304
-28.0986
-21.247
-15.7142
-11.2713
-7.94324
-5.51356
-3.70703
-2.34723
-1.33139
-0.5811
-0.0292495
0.376056
0.671517
0.884566
1.03408
1.13017
1.17311
1.14877
1.01817
0.687117
23.0897
22.1108
19.714
15.7225
9.85545
1.61575
-9.67676
-24.8072
-44.5063
-69.0374
-97.2782
-125.447
-146.618
-152.663
-140.432
-116.398
-90.6713
-69.1348
-52.4904
-39.6574
-29.7632
-22.2499
-16.5199
-12.0659
-8.67671
-6.16857
-4.31043
-2.91037
-1.84593
-1.03684
-0.422456
0.0441633
0.396878
0.659165
0.845547
0.962563
1.00714
0.965801
0.814954
0.522612
52.3198
53.0994
54.9653
57.957
62.1122
67.5192
74.2455
82.21
91.0539
99.959
107.473
111.52
110.067
102.516
90.5779
77.1124
64.0489
52.1514
41.7517
33.0217
25.9429
20.3299
15.9454
12.5526
9.93547
7.90156
6.31338
5.07986
4.12721
3.39516
2.83629
2.40494
2.06072
1.77441
1.54454
1.35263
1.13443
0.894144
0.602196
0.223643
51.4477
52.2163
54.034
56.9615
61.0719
66.5072
73.4197
81.8568
91.6152
101.996
111.441
117.166
115.618
105.949
91.4529
76.3642
62.3998
49.9825
39.4066
30.7691
23.9004
18.54
14.3885
11.2294
8.81281
6.91724
5.41931
4.24602
3.32099
2.59944
2.05985
1.66468
1.33938
1.07213
0.857683
0.673378
0.527497
0.373175
0.18848
-0.0166347
49.7514
50.4711
52.1688
54.9307
58.8873
64.276
71.4138
80.6248
92.1022
105.573
119.27
128.691
126.677
111.935
92.6439
75.0044
59.4737
46.0841
35.1534
26.6215
20.04
15.2948
11.4241
8.5441
6.38292
4.71257
3.43584
2.49923
1.757
1.21073
0.779607
0.431366
0.192798
0.041978
-0.0592777
-0.108844
-0.103971
-0.0543486
0.0157159
0.0446678
47.2811
47.9089
49.3837
51.8178
55.3992
60.4742
67.5751
77.4573
91.1567
109.97
134.935
156.99
157.62
132.054
103.158
80.7737
60.8927
44.8883
32.7044
23.7777
12.2782
9.50843
6.28743
3.775
1.66754
-0.0147848
-1.25902
-2.17495
-2.80574
-3.2834
-3.63542
-3.8737
-4.00984
-4.07034
-4.05745
-3.94645
-3.71147
-3.30101
-2.63474
-1.54339
44.1483
44.6267
45.7508
47.6333
50.4907
54.7309
61.0319
70.5283
85.1608
114.226
155.51
203.002
209.805
139.591
99.2994
72.9271
47.8488
30.3255
18.744
11.8415
9.94439
-2.22029
-3.3329
-4.59186
-5.96916
-7.28914
-8.1217
-8.65464
-9.02338
-9.28884
-9.46907
-9.57901
-9.58576
-9.48679
-9.32854
-9.02521
-8.49843
-7.59785
-6.06443
-3.47687
40.5201
40.7974
41.4317
42.5122
44.2253
46.9146
51.1979
58.2393
70.4004
104.861
165.377
292.565
391.332
103.41
113.845
58.4209
21.4043
2.36575
-7.74594
-12.8136
-11.5195
-26.0076
-27.3336
-30.9882
-32.1537
-31.791
-31.2038
-30.592
-29.9325
-29.2279
-28.4943
-27.7248
-26.965
-26.2016
-25.3363
-24.3152
-22.9962
-21.0305
-17.5982
-10.6667
36.6288
36.6667
36.7023
36.7756
36.971
37.4228
38.3681
40.247
43.9238
68.4278
120.115
301.767
1604.52
262.973
-14.9475
-59.0474
-68.3251
-69.6954
-68.2087
-63.054
-35.4442
-34.6541
-36.9586
-37.2914
-36.4368
-35.3965
-34.3908
-33.3929
-32.3935
-31.4027
-30.4486
-29.4993
-28.5092
-27.4841
-26.3324
-24.9
-22.8166
-19.2199
-11.8578
32.7709
32.546
31.9388
30.9223
29.4481
27.3856
24.4735
20.1825
13.3295
14.0341
4.46828
-93.6833
-661.921
-653.245
-186.096
-76.6602
-53.0213
-43.1108
-36.9457
-31.4603
-28.8307
-31.2659
-27.0723
-23.1873
-20.7939
-18.9615
-17.4853
-16.33
-15.4119
-14.6599
-14.0262
-13.48
-13.007
-12.5285
-12.0303
-11.4558
-10.7015
-9.58086
-7.75202
-4.53998
29.2456
28.7701
27.5608
25.531
22.5264
18.2212
12.043
3.00523
-10.611
-26.4113
-70.3428
-155.177
-278.709
-292.612
-186.931
-109.373
-70.5006
-48.7612
-35.4228
-26.8382
-24.2073
-19.2541
-15.1703
-11.9305
-9.98097
-8.67359
-7.66674
-6.88271
-6.27795
-5.8031
-5.41771
-5.0935
-4.81606
-4.55161
-4.27651
-3.9617
-3.56308
-3.01812
-2.24133
-1.1238
26.3336
25.65
23.9534
21.1141
16.9239
10.9717
2.5962
-9.22691
-26.1334
-50.9451
-84.4467
-125.388
-161.567
-168.013
-139.972
-103.06
-74.2391
-54.3699
-40.3282
-30.0788
-22.888
-18.8192
-15.0465
-11.8905
-9.54454
-7.77681
-6.37425
-5.24725
-4.34932
-3.63444
-3.06083
-2.59451
-2.21347
-1.88955
-1.60237
-1.33366
-1.06853
-0.793725
-0.502715
-0.183115
24.2693
23.4429
21.4085
18.0254
13.0696
6.12451
-3.41535
-16.3291
-33.5244
-55.8399
-83.0387
-112.041
-135.186
-140.959
-126.333
-101.496
-77.6944
-59.077
-44.971
-34.1215
-25.8421
-19.74
-15.0318
-11.2972
-8.43559
-6.28592
-4.65828
-3.41565
-2.46763
-1.74634
-1.19628
-0.774715
-0.450136
-0.198095
-0.00144006
0.150158
0.25847
0.316687
0.309273
0.226413
23.2063
22.3022
20.098
16.446
11.123
3.72848
-6.27919
-19.5056
-36.4738
-57.2893
-80.9291
-104.278
-121.831
-127.268
-118.263
-99.6465
-79.1527
-61.4216
-47.2815
-36.1157
-27.357
-20.6419
-15.5515
-11.6453
-8.66391
-6.41339
-4.71166
-3.41243
-2.41491
-1.64849
-1.05943
-0.605583
-0.2559
0.0112399
0.210147
0.348171
0.423372
0.42623
0.348437
0.216402
50.2714
50.9026
52.3996
54.7834
58.0661
62.2896
67.4671
73.4837
79.9996
86.3301
91.3555
93.6
91.7244
85.4311
75.9888
65.3741
54.9386
45.2477
36.5898
29.161
23.0122
18.0653
14.1922
11.2398
8.97525
7.19803
5.79589
4.70181
3.85648
3.20643
2.70707
2.31969
2.01248
1.76344
1.55799
1.37508
1.18368
0.961063
0.672378
0.274155
49.4516
50.068
51.5169
53.8314
57.0499
61.2505
66.5012
72.7659
79.7907
86.9362
92.96
95.883
93.6469
85.9214
75.0232
63.6417
52.8883
43.048
34.4008
27.1207
21.1643
16.3959
12.724
10.0396
8.019
6.43008
5.17278
4.18563
3.40873
2.79833
2.32141
1.94755
1.64732
1.40394
1.20516
1.03706
0.884055
0.718078
0.505145
0.202201
47.8522
48.4234
49.758
51.9049
54.9454
59.0206
64.3014
70.917
78.835
87.6261
95.9289
100.593
97.2428
85.7108
71.8068
59.3007
48.0654
37.883
29.1434
21.989
16.2132
11.7629
8.97582
7.02046
5.37205
4.02624
3.01605
2.28263
1.73838
1.33542
1.03413
0.811538
0.658091
0.556777
0.493289
0.46648
0.474081
0.499795
0.501335
0.351279
45.5339
46.0194
47.1493
48.9883
51.654
55.3588
60.4009
67.1464
75.9921
87.2369
99.1879
107.818
101.998
82.7339
65.1567
52.2918
40.8813
30.8626
22.6358
15.8555
9.12818
2.87174
2.87141
3.22369
2.5437
1.57005
0.742228
0.0886949
-0.431934
-0.852103
-1.18057
-1.42173
-1.5807
-1.67085
-1.69251
-1.62914
-1.46223
-1.1673
-0.737375
-0.251217
42.6087
42.9628
43.7771
45.1248
47.1288
50.0441
54.2392
60.2644
68.8944
88.8222
110.124
131.27
125.48
83.6574
60.0657
46.9603
31.85
20.1314
12.0056
6.35257
0.836131
-13.2727
-10.7418
-7.75875
-6.43886
-5.83591
-5.42796
-5.14116
-4.96523
-4.87123
-4.82385
-4.79303
-4.75552
-4.69659
-4.58465
-4.3692
-3.9845
-3.32698
-2.28642
-0.899552
39.2375
39.4188
39.8063
40.4559
41.4771
43.0606
45.5181
49.3676
55.4891
77
104.463
149.555
168.069
28.2794
21.4885
4.9558
-4.5599
-9.23582
-12.6545
-15.0309
-20.9702
-13.5654
-14.9285
-16.7006
-17.1924
-17.1107
-16.9179
-16.6999
-16.4528
-16.1778
-15.8767
-15.5333
-15.1698
-14.7786
-14.2959
-13.6636
-12.7737
-11.3933
-9.07677
-5.06201
35.6417
35.614
35.4898
35.2865
35.0423
34.8012
34.6175
34.557
34.6752
48.4285
59.9311
130.632
174.187
-687.861
-130.95
-93.6236
-69.3139
-63.3371
-58.6393
-54.9312
-67.2064
-40.3824
-38.0384
-35.8942
-33.9611
-32.0617
-30.3837
-28.9445
-27.676
-26.5347
-25.497
-24.5473
-23.6638
-22.7866
-21.882
-20.8851
-19.6777
-17.9735
-15.1412
-9.54852
32.0824
31.8331
31.1657
30.0498
28.4355
26.1859
23.0349
18.4821
11.5421
9.78177
-12.1903
-81.0272
-304.702
-256.028
-106.23
-59.1107
-38.8982
-29.4544
-23.8072
-19.0617
-10.9775
4.62982
1.70653
-2.01227
-3.61637
-4.32549
-4.75881
-5.05364
-5.24079
-5.34932
-5.40499
-5.42995
-5.41656
-5.33791
-5.17809
-4.91294
-4.47559
-3.7428
-2.55959
-0.984209
28.8402
28.3773
27.2019
25.2418
22.3746
18.3331
12.6557
4.55578
-7.42861
-26.249
-50.3608
-104.752
-175.078
-186.773
-129.544
-83.1162
-56.724
-40.3134
-29.5202
-21.6364
-11.2796
-2.04861
-2.83764
-4.18486
-4.15599
-3.6568
-3.17691
-2.78177
-2.45506
-2.18735
-1.97053
-1.79181
-1.64149
-1.50447
-1.34951
-1.15526
-0.8978
-0.54626
-0.114338
0.200445
26.1659
25.5272
23.9389
21.3038
17.4628
12.0979
4.71465
-5.41719
-19.3367
-38.3773
-63.2607
-91.799
-116.098
-121.744
-105.411
-81.4233
-60.9675
-45.8062
-34.4095
-25.3758
-17.788
-12.5358
-9.54096
-7.38523
-5.48361
-3.9194
-2.73303
-1.84979
-1.18802
-0.691265
-0.318694
-0.0378491
0.173551
0.338489
0.480175
0.610614
0.734409
0.842169
0.881829
0.685045
24.2724
23.5099
21.6412
18.5534
14.0806
7.90561
-0.420913
-11.4441
-25.7219
-43.5966
-64.5785
-86.3969
-103.435
-108.538
-99.5512
-82.6167
-65.3043
-50.8733
-39.3653
-30.0965
-22.596
-16.7389
-12.2314
-8.89164
-6.38016
-4.46577
-3.01186
-1.91015
-1.0739
-0.438498
0.0435558
0.408487
0.683424
0.889229
1.04057
1.14486
1.19842
1.18167
1.0471
0.692761
23.299
22.4704
20.4571
17.1442
12.3659
5.81732
-2.90353
-14.2165
-28.4268
-45.4542
-64.3492
-82.7062
-96.4537
-101.22
-95.4262
-82.2176
-66.9065
-52.9815
-41.3946
-31.9206
-24.2365
-18.1401
-13.4317
-9.87
-7.15813
-5.06328
-3.44232
-2.19435
-1.23746
-0.505735
0.0517759
0.474015
0.790624
1.02269
1.18348
1.2791
1.30396
1.23965
1.04947
0.672146
48.3525
48.8433
49.9996
51.8275
54.3133
57.4608
61.2407
65.5189
69.9887
74.1046
77.0562
77.8734
75.772
70.6783
63.4479
55.3311
47.209
39.5016
32.4645
26.3051
21.1277
16.9256
13.6189
11.0647
9.06372
7.46083
6.17478
5.15437
4.35159
3.72079
3.22364
2.82839
2.50832
2.24097
2.00656
1.78466
1.54829
1.2657
0.897194
0.392238
47.5784
48.0543
49.1622
50.9187
53.3241
56.4073
60.1695
64.5181
69.1845
73.6248
76.9309
77.88
75.4017
69.5051
61.5869
53.2126
45.0869
37.4346
30.5152
24.555
19.6218
15.6828
12.668
10.3821
8.5803
7.12109
5.94347
4.99989
4.2419
3.62959
3.13318
2.72899
2.39651
2.11687
1.87371
1.65102
1.42675
1.16988
0.836283
0.369566
46.0709
46.5042
47.5006
49.0904
51.3017
54.1986
57.8397
62.2158
67.1528
72.152
76.1394
77.316
73.7781
65.8782
56.6639
48.1825
40.3315
32.8734
26.1797
20.5491
16.0115
12.5923
10.2998
8.50899
6.91211
5.55804
4.49705
3.68901
3.06971
2.59136
2.22208
1.93736
1.7189
1.55155
1.42208
1.31995
1.22973
1.12183
0.936143
0.543595
43.8953
44.2513
45.0594
46.3565
48.2022
50.694
53.955
58.0857
63.0785
68.61
73.5288
75.1157
69.6135
58.1705
47.6254
39.8512
32.9259
26.2613