/*--------------------------------*- C++ -*----------------------------------*\
| =========                 |                                                 |
| \\      /  F ield         | OpenFOAM: The Open Source CFD Toolbox           |
|  \\    /   O peration     | Version:  2306                                  |
|   \\  /    A nd           | Website:  www.openfoam.com                      |
|    \\/     M anipulation  |                                                 |
\*---------------------------------------------------------------------------*/
FoamFile
{
    version     2.0;
    format      ascii;
    arch        "LSB;label=32;scalar=64";
    class       surfaceScalarField;
    location    "1.15";
    object      phi;
}
// * * * * * * * * * * * * * * * * * * * * * * * * * * * * * * * * * * * * * //

dimensions      [0 3 -1 0 0 0 0];

oriented        oriented;

internalField   nonuniform List<scalar> 
338621
(
24.9952
0.00209755
0.00143182
24.9877
0.00461212
0.00293625
24.9756
0.00746489
0.00464114
24.9585
0.0105276
0.00669372
24.9353
0.0139195
0.00940702
24.9025
0.0200572
0.012946
24.8557
0.0297305
0.0174165
24.7924
0.0405582
0.0231147
24.73
0.0326322
0.0302501
24.6861
0.00574528
0.0386943
24.6568
-0.0183629
0.0482669
24.5819
0.0171969
0.0584119
24.6099
-0.0958665
0.0686921
24.7402
-0.207783
0.0781298
24.7827
-0.127925
0.0860994
24.8163
-0.12542
0.0923123
24.8467
-0.127049
0.0969743
24.8717
-0.125447
0.100723
24.8927
-0.124583
0.103734
24.9203
-0.133905
0.106311
24.9507
-0.138678
0.108361
24.9734
-0.132961
0.110211
24.9905
-0.128968
0.111923
25.004
-0.126961
0.113362
25.0153
-0.125905
0.114676
25.0245
-0.125113
0.115873
25.0325
-0.124839
0.116869
25.0393
-0.124465
0.117645
25.0451
-0.124099
0.11829
25.0503
-0.123969
0.118776
25.055
-0.123812
0.119091
25.0594
-0.123647
0.119221
25.0636
-0.123417
0.119292
25.0674
-0.123147
0.1193
25.0711
-0.122882
0.11922
25.0749
-0.122954
0.119095
25.0789
-0.122887
0.118892
25.0831
-0.122889
0.118694
25.0877
-0.123019
0.11846
-0.123547
0.117945
24.9951
0.00419652
0.00139986
24.9875
0.0093862
0.00283805
24.975
0.0154838
0.00451616
24.9578
0.0213345
0.00654185
24.9346
0.0280806
0.0092213
24.905
0.0372037
0.0126399
24.8691
0.0487107
0.017143
24.823
0.0640496
0.0229113
24.7579
0.0679044
0.0302116
24.6825
0.0425927
0.039078
24.6386
-0.0233762
0.0494458
24.6242
-0.0283901
0.0605352
24.6621
-0.20553
0.0723655
24.7462
-0.374365
0.0830698
24.8274
-0.300391
0.0917596
24.8972
-0.293184
0.0982925
24.9513
-0.283959
0.103105
24.9952
-0.276112
0.10688
25.0416
-0.28093
0.109947
25.0766
-0.281272
0.112409
25.0973
-0.273903
0.114473
25.1117
-0.263537
0.116223
25.121
-0.256156
0.117882
25.1279
-0.253151
0.119306
25.1327
-0.251297
0.120579
25.1362
-0.250322
0.121682
25.1382
-0.249538
0.122663
25.1399
-0.249582
0.123466
25.1414
-0.249749
0.124121
25.1424
-0.249637
0.124626
25.1433
-0.249685
0.124984
25.1438
-0.249386
0.12521
25.1446
-0.249515
0.125351
25.1454
-0.249336
0.125414
25.1462
-0.249179
0.12541
25.1473
-0.249371
0.125396
25.1486
-0.249471
0.125283
25.1503
-0.249765
0.125179
25.1528
-0.250497
0.12498
-0.250788
0.124521
24.9954
0.00599508
0.00132525
24.9879
0.0142908
0.00268734
24.976
0.0231336
0.0042475
24.9581
0.0330761
0.00624643
24.9338
0.0437231
0.00882223
24.9025
0.0564799
0.0121729
24.8624
0.0723696
0.0166871
24.8128
0.0912937
0.0225428
24.7433
0.107485
0.0302101
24.6446
0.101685
0.0399936
24.5666
0.00591148
0.051974
-0.00535218
0.00636662
-0.00393081
24.6618
-0.0379855
0.0657936
-0.0577119
-0.0366453
-0.0566482
24.5533
-0.010436
0.0790204
-0.0948295
0.0225849
-0.0930576
24.7263
-0.181731
0.0915491
-0.123649
-0.211365
-0.121775
24.821
-0.128743
0.100748
-0.121442
-0.126445
-0.118912
24.8836
-0.117955
0.107185
-0.115985
-0.115296
-0.113617
24.9395
-0.114035
0.111767
-0.114188
-0.111946
-0.111408
25.007
-0.116444
0.115376
-0.115337
-0.114218
-0.113123
25.0515
-0.112746
0.118354
-0.11129
-0.110599
-0.109252
25.0783
-0.108811
0.120689
-0.107706
-0.106694
-0.105593
25.0971
-0.415347
0.122637
25.111
-0.401785
0.124268
25.119
-0.390025
0.125829
25.1246
-0.386039
0.127326
25.1286
-0.384086
0.128745
25.1312
-0.382879
0.129993
25.1325
-0.381924
0.131051
25.1335
-0.382475
0.131922
25.1336
-0.38242
0.132609
25.1338
-0.383053
0.133123
25.1337
-0.383013
0.133477
25.1336
-0.383039
0.133701
25.1333
-0.382938
0.133781
25.1331
-0.383014
0.133891
25.1326
-0.382628
0.133886
25.1323
-0.382894
0.133904
25.1324
-0.383406
0.133835
25.1328
-0.38401
0.13376
25.1336
-0.384824
0.13357
-0.385662
0.133111
24.9957
0.00811303
0.0012118
24.989
0.0185169
0.00246182
24.9774
0.0309796
0.00387492
24.9606
0.0441716
0.00576007
24.936
0.0602095
0.0081546
24.9016
0.07973
0.0113567
24.8559
0.102534
0.0157106
24.7974
0.128416
0.0215221
24.7304
0.145285
0.0294004
6.14109
0.0373697
0.0400261
0.054812
0.0387639
0.0552115
6.16318
6.14043
6.16135
6.12335
0.0178201
0.00584819
-6.11
6.09759
-0.0332564
0.00769478
-6.10125
6.12254
-0.0413259
0.00962072
-6.11468
6.14157
-0.220249
0.0116326
-6.16039
6.17485
-0.156315
0.0131157
-6.18839
6.1994
-0.14293
0.0139742
-6.21105
6.22571
-0.143269
0.014569
-6.23805
6.24563
-0.139087
0.0150456
-6.25181
6.25738
-0.133768
0.0154435
-6.26212
6.26641
-0.128928
0.0158159
25.1105
-0.141925
0.132258
-0.142792
-0.140102
-0.141786
-6.27023
-6.27507
-6.27077
-6.27544
25.1166
-0.542253
0.134327
25.1182
-0.527224
0.135569
25.1192
-0.523727
0.136727
25.1178
-0.520804
0.138077
25.1148
-0.519307
0.13945
25.1116
-0.519492
0.140731
25.1075
-0.520267
0.141852
25.103
-0.52061
0.14276
25.098
-0.52151
0.143434
25.0929
-0.52183
0.143877
25.0875
-0.521765
0.144126
25.0817
-0.521325
0.144189
25.0758
-0.521408
0.144276
25.0699
-0.520919
0.144225
25.0636
-0.520828
0.144194
25.0574
-0.521209
0.144057
25.0512
-0.521665
0.143816
25.0463
-0.523267
0.143415
-0.523935
0.142618
24.9973
0.00859981
0.00105915
24.9914
0.0222721
0.00215657
24.9817
0.0373339
0.00339182
24.9663
0.0545636
0.00505832
24.9435
0.0759451
0.00717689
24.9101
0.103222
0.0100242
24.8601
0.138751
0.0138954
24.7857
0.183677
0.0192425
6.17121
0.234481
0.0265385
6.16388
6.17108
6.16391
6.15504
0.0495867
0.00395865
6.12927
0.00554901
-6.15746
0.0204874
0.0120649
0.0119278
0.0205444
-0.0423821
-6.07609
6.04131
0.00755747
-0.00162652
0.00451068
0.00424051
-0.00155891
0.02165
-6.04033
6.05823
0.00990324
0.0294432
-0.0398536
-0.0399674
-0.018856
0.0414093
-6.11047
6.13583
0.0126935
-0.0520347
-0.066695
-0.10455
-0.0524998
0.237699
-6.16863
6.18111
0.014297
-0.050953
-0.0548161
-0.0541212
-0.0513437
0.184448
-6.19332
6.20721
0.0149507
-0.0511403
-0.050459
-0.0503441
-0.0512484
0.174347
-6.2212
6.23337
0.0152888
-0.0490748
-0.0491537
-0.0489934
-0.0492794
0.16902
-6.24334
6.25093
0.0156076
-0.0462679
-0.0463338
-0.0460853
-0.0465323
0.161997
-6.25767
6.26262
0.0160205
-0.0437319
-0.0440606
-0.0438002
-0.043993
0.154599
-6.26707
6.26953
0.0165588
-0.0415879
-0.0421034
-0.0418677
-0.0418157
0.148352
-6.27288
6.27495
-0.161485
0.0174861
25.0593
-0.646781
0.137764
-6.27517
-6.26907
-6.27655
-6.27178
25.0318
-0.638358
0.138683
25.0015
-0.631962
0.138473
24.9705
-0.627836
0.138057
24.9405
-0.626946
0.13762
24.9116
-0.627791
0.137153
24.8841
-0.629252
0.136578
24.8585
-0.630877
0.135821
24.8342
-0.632047
0.134834
24.8115
-0.63278
0.133634
24.7904
-0.632948
0.132276
24.7708
-0.632469
0.130808
24.7517
-0.631787
0.129417
24.7339
-0.63111
0.128042
24.7168
-0.63045
0.126735
24.7004
-0.630265
0.12542
24.6853
-0.630601
0.123992
24.6717
-0.63198
0.122357
-0.635087
0.120289
24.9999
0.007162
0.000868656
24.9966
0.0238371
0.00178297
24.989
0.0420795
0.00281025
24.9773
0.0622156
0.00412236
24.9597
0.0877255
0.0058511
24.9327
0.122197
0.00811768
24.8896
0.170727
0.0111367
24.8174
0.240669
0.0153276
6.1709
0.348376
0.0209183
6.1705
6.17089
6.17034
-0.0656047
6.14527
0.0881307
0.00311566
-0.0198573
-1.52764
1.52247
0.0244405
0.000583231
-0.0199181
-1.50414
1.49194
0.0313931
0.00072949
-1.46802
0.0516965
1.47778
-0.0625976
0.00113754
-1.52905
0.0845332
1.5377
-0.0945535
0.00136802
-1.53613
0.0618373
-0.0657801
0.00176392
1.53831
-1.54786
0.0597954
-0.0642981
0.00190046
1.55046
0.0569948
-1.55631
1.55778
-0.0605115
0.00204077
0.0526635
-1.56074
1.56128
-0.0554125
0.00220988
0.0496541
-1.56187
1.56192
-0.0520786
0.00236487
0.0470736
-1.56121
1.56079
-0.0491456
0.0024895
-1.5542
0.177048
6.15745
-0.170435
0.0190489
-1.53709
-1.55457
-1.53725
23.8258
-0.745886
0.0717533
-6.09822
-5.79451
-6.10926
-5.7965
23.8431
-0.726154
0.0705384
23.8566
-0.714385
0.0688871
23.8688
-0.706749
0.0666965
23.8799
-0.702356
0.0643677
23.8901
-0.7
0.0619975
23.9001
-0.698786
0.059557
23.9101
-0.697973
0.0570309
23.9207
-0.697087
0.0544544
23.9319
-0.695823
0.0518996
23.9435
-0.694063
0.0494439
23.956
-0.692001
0.0471254
23.9688
-0.689667
0.0450425
23.9818
-0.687235
0.0431369
23.995
-0.685093
0.0413794
24.0082
-0.683142
0.0396935
24.0212
-0.681502
0.0379566
24.0333
-0.680122
0.0360232
-0.678386
0.0338454
25.003
0.00328471
0.000679718
25.0035
0.021957
0.00135436
25.0006
0.0428431
0.00213128
24.995
0.0648718
0.00304809
24.9862
0.0922721
0.00422174
24.9727
0.129935
0.00573543
24.9533
0.18263
0.00759282
24.9226
0.261423
0.00993284
6.21359
0.388136
0.0126172
6.22171
6.21334
6.22155
-0.106414
6.19836
0.11986
0.00178672
-0.0395395
-1.54225
1.53614
0.0453468
0.000299756
-0.0828883
-1.50691
1.48846
0.101007
0.000326706
0.00432533
-0.0746285
0.0748007
-0.0045464
4.87917e-05
-0.0213829
0.000449764
0.020895
2.4782e-06
3.5589e-05
-0.190309
0.00677021
-0.0174823
-0.00399543
0.205017
-1.16646
0.0547314
-0.0739129
-0.00469533
1.19034
0.05225
-1.24255
1.2545
-0.0596425
-0.00455724
0.0530076
-1.28938
1.30042
-0.0599429
-0.00410278
0.0514369
-1.3284
1.33683
-0.0561851
-0.0036808
0.0501748
-1.35819
1.36562
-0.0543159
-0.00329371
-1.40369
0.200484
5.83644
-0.216256
-0.018378
-1.49764
-1.40312
-1.49784
24.108
-0.667225
-0.11102
-5.88477
-6.17278
-5.84846
-6.16966
24.135
-0.643261
-0.10989
24.1626
-0.633441
-0.108456
24.1907
-0.627347
-0.107509
24.218
-0.622773
-0.106944
24.2441
-0.619567
-0.106463
24.2685
-0.61726
-0.105958
24.291
-0.615243
-0.105279
24.3117
-0.613279
-0.104463
24.3306
-0.611197
-0.103553
24.3482
-0.608969
-0.102644
24.3647
-0.606756
-0.101741
24.3806
-0.604583
-0.100978
24.3962
-0.602536
-0.100289
24.4114
-0.600621
-0.0997408
24.4267
-0.599068
-0.0993503
24.4418
-0.597533
-0.0991079
24.4565
-0.5957
-0.0990877
-0.592646
-0.0993681
25.0047
-0.00154829
0.000445375
25.0099
0.0158531
0.000910987
25.0147
0.0365851
0.00140032
25.0186
0.0590154
0.00194507
25.0205
0.0878518
0.00251937
25.0256
0.121608
0.00317467
25.0379
0.166528
0.00375119
25.0644
0.230883
0.00403808
6.27468
0.331879
0.00364401
6.28242
6.27506
6.28475
-0.111741
6.28266
0.103416
0.000342361
-0.0446043
-1.57817
1.57994
0.0428371
-3.72582e-07
-0.0838873
-1.59879
1.61389
-0.000186426
0.0689719
-0.0254535
-1.71325
1.75132
-0.000818355
0.0549454
-0.0206254
-0.0255301
-0.0205849
0.0992563
-1.71194
1.68282
-0.00123731
-0.0688866
0.101555
-1.60936
-0.00140572
1.59891
-0.0897009
0.0774012
-1.58466
-0.00158217
1.58179
-0.0729472
0.0562582
-1.57724
1.57632
-0.0535977
-0.00174379
0.0569867
-1.57458
1.57277
-0.0533348
-0.00184202
0.0513471
-1.57233
1.57166
-0.048769
-0.00190765
0.047721
-1.57065
1.57014
-0.0452517
-0.0019593
-1.5678
0.178084
6.26529
-0.157696
-0.0157949
-1.56731
-1.56744
-1.56733
25.0705
-0.538908
-0.122161
-6.26888
-6.26879
-6.27005
-6.26892
25.0711
-0.52136
-0.122546
25.0683
-0.508128
-0.122489
25.0649
-0.501294
-0.122578
25.0619
-0.496805
-0.122975
25.0595
-0.493622
-0.123557
25.0576
-0.491064
-0.124304
25.0559
-0.488522
-0.125042
25.0549
-0.486554
-0.125725
25.0543
-0.484272
-0.126291
25.0539
-0.481777
-0.126764
25.0539
-0.479777
-0.126995
25.0541
-0.477644
-0.127185
25.0542
-0.475366
-0.127246
25.0547
-0.473805
-0.12734
25.0554
-0.472181
-0.127524
25.0562
-0.470548
-0.127852
25.0575
-0.468568
-0.128411
-0.466357
-0.12913
25.0056
-0.0064326
0.000226617
25.0139
0.00708246
0.00048609
25.0267
0.0230245
0.000710683
25.0379
0.0469341
0.000880743
25.0531
0.0716269
0.000941498
25.0766
0.0973041
0.000784446
25.1145
0.128196
0.000236656
25.1781
0.168419
-0.00116625
6.32058
0.230625
-0.00393906
6.31866
6.32489
6.31899
-0.0885944
6.33679
0.0732044
-0.000820864
-0.0331289
6.4135
0.0876433
-0.00181027
-0.0343018
-0.0333446
-0.0340105
-6.36454
-0.0330923
6.51712
0.0752454
-0.00375655
-0.0257511
-0.0331265
-0.0258325
-6.47081
-0.0067836
-6.54724
6.51284
-0.00637499
-0.00670864
0.0155865
-0.00714296
0.0458358
0.0453879
-6.53459
6.51315
-0.122817
-0.00974369
0.0391664
0.036015
0.0334365
0.0547496
-6.44893
6.41158
-0.176094
-0.0118591
0.0553165
0.0570899
0.0581337
0.0559009
-6.37196
6.34017
-0.173659
-0.0131852
0.0545935
0.0549041
0.0532349
0.0460339
-6.3224
6.3115
-0.155156
-0.0140965
0.0450856
0.0448543
0.0441888
0.0439847
-6.30305
6.2973
-0.15408
-0.0146689
0.0437509
0.0434977
0.0432826
0.0409844
-6.29287
6.28746
-0.14132
-0.0149703
0.0404849
0.0404318
0.0398113
0.0380756
-6.28311
6.27757
-0.129425
-0.0151199
0.0376091
0.0375054
0.0369035
0.140902
-6.27589
6.27384
-0.123545
-0.0153045
25.0722
-0.402537
-0.124895
-6.27113
-6.27106
-6.27117
-6.27028
25.0632
-0.38759
-0.124794
25.0584
-0.378586
-0.124721
25.0549
-0.372901
-0.124882
25.0525
-0.369215
-0.125152
25.0507
-0.366399
-0.125412
25.0495
-0.364302
-0.125599
25.0491
-0.362455
-0.125671
25.0489
-0.360744
-0.125608
25.0491
-0.359067
-0.125414
25.0497
-0.357171
-0.125146
25.0505
-0.355795
-0.124779
25.0511
-0.35394
-0.124352
25.0525
-0.352734
-0.123991
25.0537
-0.351288
-0.123725
25.0548
-0.349735
-0.123581
25.0566
-0.348699
-0.123635
25.0595
-0.347484
-0.123957
-0.346485
-0.124591
25.0062
-0.0112559
8.53004e-05
25.0158
-0.0027141
0.000151894
25.0244
0.0141976
0.000139632
25.0408
0.0305205
2.45036e-05
25.0672
0.0454355
-0.000350353
25.1006
0.0649493
-0.00112413
25.1481
0.0830523
-0.00253139
25.2147
0.106716
-0.00504315
25.3237
0.130695
-0.00933677
25.4291
0.144782
-0.016348
-0.0609783
-0.0566903
-0.0587501
-0.0576306
25.5777
0.132778
-0.0270072
-0.0604718
-0.063901
-0.0622538
-0.0680176
25.7122
0.0553631
-0.041961
-0.0417419
-0.0277689
-0.0463194
-0.0323486
25.5908
-0.155259
-0.0596043
0.0214203
0.124204
0.0191442
0.171142
25.4999
-0.235705
-0.0778258
0.0829032
0.116275
0.0980554
0.106888
25.4324
-0.245502
-0.0925896
0.082031
0.147279
0.0304797
0.145466
25.3477
-0.348899
-0.103177
0.133992
0.136785
0.132141
0.13368
25.2644
-0.318093
-0.109769
0.127469
0.130998
0.12483
0.127791
25.1986
-0.327735
-0.113862
0.130312
0.127239
0.126736
0.123149
25.1553
-0.306523
-0.116402
0.120176
0.117037
0.116504
0.112586
25.131
-0.28767
-0.118034
0.109606
0.109448
0.104685
0.106334
25.111
-0.273646
-0.119162
0.10511
0.104526
0.102226
0.101012
25.0928
-0.264415
-0.119924
25.0815
-0.255912
-0.1204
25.074
-0.250142
-0.120924
25.0685
-0.24581
-0.121558
25.0642
-0.242832
-0.122097
25.0614
-0.241032
-0.122582
25.059
-0.238855
-0.122981
25.0574
-0.237622
-0.123279
25.0561
-0.235991
-0.123475
25.0555
-0.234901
-0.123565
25.0555
-0.2336
-0.123572
25.0553
-0.232058
-0.123523
25.0558
-0.231047
-0.123361
25.0559
-0.229602
-0.123271
25.0563
-0.228485
-0.123198
25.0575
-0.227651
-0.123218
25.059
-0.226847
-0.12339
25.0605
-0.225257
-0.123775
-0.224061
-0.12441
25.0064
-0.0157709
-4.29593e-05
25.0093
-0.00550255
-8.76781e-05
25.0167
0.00699628
-0.000255023
25.0359
0.0117388
-0.000554649
25.0611
0.0213058
-0.00120741
25.0903
0.0379672
-0.00238801
25.1382
0.0392646
-0.00432147
25.1996
0.0524981
-0.00740708
25.279
0.0631629
-0.0122883
25.3754
0.0675268
-0.0195334
25.483
0.0543292
-0.0296862
25.5639
0.0170136
-0.0431098
25.5424
-0.0757725
-0.0584895
25.5291
-0.149212
-0.0738393
25.4074
-0.0374251
-0.0868791
25.3257
-0.170667
-0.096867
25.276
-0.165196
-0.103488
25.2147
-0.158512
-0.108015
25.1696
-0.150533
-0.110971
25.1372
-0.142291
-0.113028
25.1132
-0.135067
-0.114546
25.0943
-0.129829
-0.115621
25.0805
-0.125638
-0.116528
25.0704
-0.122765
-0.117281
25.0632
-0.120597
-0.117972
25.0581
-0.119228
-0.11845
25.0538
-0.117976
-0.118833
25.0513
-0.117178
-0.119093
25.0495
-0.116732
-0.119153
25.0485
-0.115832
-0.119091
25.0479
-0.115457
-0.118897
25.0475
-0.114601
-0.118609
25.0479
-0.114242
-0.118216
25.0482
-0.113458
-0.117804
25.0491
-0.113093
-0.117424
25.05
-0.112304
-0.117084
25.0512
-0.112051
-0.116838
25.0527
-0.111593
-0.116749
25.0553
-0.110977
-0.116888
-0.111355
-0.117343
24.9867
-9.26343e-05
24.9813
-0.000158428
24.9886
-0.000407058
25.001
-0.000731713
25.0237
-0.00153457
25.0643
-0.00283266
25.1082
-0.00493192
25.1686
-0.00823707
25.2446
-0.0132907
25.332
-0.0204428
25.4158
-0.0300528
25.4743
-0.0422282
25.4536
-0.0559045
25.3733
-0.0695599
25.4167
-0.0815211
25.3368
-0.0912744
25.2693
-0.0979929
25.2131
-0.1025
25.1681
-0.105587
25.1336
-0.107804
25.108
-0.109497
25.0889
-0.110788
25.0751
-0.111826
25.065
-0.112638
25.0578
-0.11339
25.0526
-0.113964
25.049
-0.114412
25.0466
-0.114779
25.0448
-0.114888
25.0438
-0.114898
25.0432
-0.114805
25.0432
-0.114565
25.0431
-0.114227
25.0436
-0.113878
25.0441
-0.113595
25.0451
-0.113338
25.0462
-0.11316
25.0477
-0.113129
25.0501
-0.113321
-0.113833
24.996
0.00106878
0.00272792
24.9897
0.00382967
0.00555806
24.9792
0.00646063
0.00882569
24.9636
0.00973059
0.0128482
24.9427
0.0128061
0.0179813
24.9137
0.017889
0.0246735
24.872
0.026655
0.0333338
24.8146
0.0372601
0.0443838
24.7585
0.0296132
0.0581191
24.7213
0.00279207
0.074816
24.6949
-0.0170674
0.0937009
24.6309
0.0103456
0.114141
24.6587
-0.091492
0.13466
24.7768
-0.191642
0.153853
24.8108
-0.115907
0.169967
24.8366
-0.114337
0.182442
24.861
-0.118184
0.191816
24.8808
-0.117486
0.19907
24.8976
-0.117467
0.204813
24.9244
-0.129839
0.209481
24.951
-0.131394
0.213238
24.9714
-0.126626
0.216453
24.9874
-0.123337
0.219273
25.0006
-0.121657
0.221778
25.0116
-0.120343
0.224016
25.0213
-0.11979
0.225991
25.0296
-0.119157
0.227696
25.0368
-0.11867
0.229112
25.0433
-0.118514
0.230271
25.0493
-0.118393
0.231193
25.0545
-0.118017
0.231871
25.059
-0.117616
0.23233
25.0634
-0.117696
0.232577
25.0677
-0.117737
0.232723
25.0715
-0.117259
0.232696
25.0753
-0.117341
0.232619
25.0791
-0.117192
0.232338
25.0829
-0.117173
0.232031
25.0874
-0.117487
0.231501
-0.117751
0.230233
24.9961
0.00222477
0.00265841
24.9897
0.0077205
0.00541823
24.9787
0.0135609
0.00861912
24.9631
0.0195757
0.0125846
24.9417
0.0262056
0.0176696
24.9144
0.0340161
0.0243444
24.8815
0.0443784
0.0330541
24.8389
0.0594038
0.0443344
24.7758
0.0654683
0.0586724
24.6992
0.0434327
0.0764264
24.6547
-0.0187062
0.0971887
24.591
0.0161144
0.120155
24.6255
-0.195257
0.143339
24.7584
-0.404575
0.164809
24.841
-0.287448
0.182195
24.9108
-0.280116
0.195293
24.9626
-0.271194
0.205064
25.0037
-0.263838
0.212474
25.0492
-0.271267
0.218313
25.0815
-0.272492
0.222876
25.1001
-0.26206
0.226489
25.1131
-0.252899
0.229504
25.1215
-0.246077
0.232155
25.1277
-0.24305
0.234498
25.1326
-0.241295
0.236597
25.1359
-0.239856
0.238478
25.1381
-0.238866
0.240164
25.1402
-0.239009
0.241651
25.1418
-0.238875
0.242937
25.1428
-0.238822
0.244011
25.1439
-0.239023
0.244869
25.1452
-0.239173
0.245517
25.1458
-0.239007
0.246016
25.1464
-0.239256
0.246331
25.1475
-0.239469
0.246507
25.1482
-0.239191
0.246549
25.1493
-0.239494
0.246448
25.1511
-0.239938
0.246197
25.1529
-0.240048
0.245761
-0.240776
0.244524
24.9961
0.00348887
0.00251745
24.9898
0.011619
0.00514074
24.9789
0.0207021
0.00820157
24.9627
0.0302599
0.0120233
24.9401
0.0409696
0.016974
24.9104
0.0528373
0.0235522
24.8725
0.0672567
0.0323055
24.826
0.0853163
0.0439293
24.7601
0.103239
0.0592276
24.6646
0.100921
0.0789167
24.5847
0.00666815
0.103204
-0.00273467
0.00747484
-0.000366072
24.7158
-0.0357516
0.130708
-0.0561703
-0.033517
-0.0533595
24.5728
0.0238579
0.158438
-0.0928732
0.027264
-0.0888502
24.7366
-0.212423
0.183989
-0.122087
-0.20806
-0.117141
24.8299
-0.126763
0.202673
-0.119329
-0.121836
-0.113811
24.8918
-0.116042
0.215779
-0.114362
-0.111075
-0.108729
24.9465
-0.112939
0.225321
-0.112186
-0.107696
-0.106627
25.0122
-0.114972
0.232512
-0.113826
-0.109725
-0.108392
25.0551
-0.111513
0.238093
-0.110297
-0.106501
-0.10582
25.0817
-0.108186
0.242279
-0.106683
-0.103958
-0.1021
25.1006
-0.403671
0.245231
25.1133
-0.389126
0.247669
25.1213
-0.378103
0.24982
25.1268
-0.373642
0.252457
25.1305
-0.370958
0.254655
25.1328
-0.368979
0.256844
25.1343
-0.367631
0.258306
25.1346
-0.367264
0.259818
25.1345
-0.367314
0.261124
25.1349
-0.368338
0.262229
25.1344
-0.368169
0.263129
25.1341
-0.36899
0.263842
25.1344
-0.369629
0.264145
25.134
-0.369776
0.2648
25.1335
-0.370175
0.265058
25.1335
-0.370436
0.265182
25.1335
-0.370856
0.265139
25.1338
-0.371334
0.264887
25.1349
-0.371972
0.264404
-0.372616
0.263089
24.9969
0.00450472
0.00230292
24.9909
0.0155066
0.0047158
24.9801
0.0279462
0.00754364
24.9641
0.0411915
0.0111019
24.9413
0.0564415
0.0157638
24.9084
0.0754197
0.0220391
24.8637
0.0975208
0.0306022
24.8057
0.123153
0.0422975
24.7377
0.142863
0.0583334
6.14285
0.0385569
0.0802453
0.0543816
0.0391307
0.055092
6.16282
6.14334
6.16267
-0.0115979
6.12539
0.0181701
0.0176121
-0.0153796
-6.11296
6.10063
-0.0313114
0.023317
-0.0193418
-6.10413
6.09656
0.0214868
0.0293202
-0.0233412
-6.11173
6.14391
-0.256544
0.035307
-0.0263023
-6.16215
6.17648
-0.154448
0.0396963
-0.0281254
-6.19001
6.20122
-0.141524
0.0424093
-0.0293209
-6.21257
6.22718
-0.142538
0.0442773
-0.030225
-6.2403
6.24778
-0.137976
0.0457029
-0.0309743
-6.25394
6.25947
-0.132927
0.0468116
-0.0316172
-6.26356
6.26791
-0.12869
0.0477365
25.1162
-0.140866
0.269179
-0.14084
-0.140313
-0.138224
-6.27215
-6.27645
-6.27187
-6.27627
25.1229
-0.532196
0.270648
25.125
-0.516387
0.271662
25.1258
-0.512014
0.274343
25.1243
-0.508315
0.276891
25.1208
-0.505654
0.279659
25.1169
-0.504787
0.281718
25.1123
-0.504551
0.283762
25.1071
-0.504837
0.285491
25.1012
-0.50591
0.286886
25.0955
-0.506573
0.28795
25.0896
-0.507648
0.288716
25.0834
-0.508185
0.288952
25.0773
-0.508922
0.289495
25.0712
-0.509338
0.2895
25.0653
-0.509807
0.289413
25.0592
-0.509637
0.28898
25.0534
-0.509993
0.288225
25.049
-0.511084
0.287014
-0.511333
0.284691
24.9985
0.00401903
0.00201407
24.9935
0.018596
0.00413451
24.9841
0.0342302
0.00662199
24.9696
0.0511912
0.00976279
24.9476
0.0719603
0.0139023
24.9154
0.0985707
0.0192659
24.8667
0.133235
0.0272973
24.7938
0.177523
0.0381314
6.17365
0.228759
0.0535282
6.16638
6.17443
6.16677
-0.00786954
6.15837
0.0497249
0.0120021
-0.0111035
6.13225
0.0169894
-6.16119
0.0204946
0.0116499
0.0204995
0.0115504
-0.0411462
-0.0152177
-6.07881
6.04471
0.0234086
-0.0013956
0.00394853
-0.00168827
0.00419036
0.0208133
-0.020086
-6.04262
6.05599
0.0308772
0.0524253
-0.0401387
0.05187
-0.0396902
-0.0487784
-0.0253232
-6.0963
6.13736
0.0384244
-0.0511882
-0.129144
-0.0518708
-0.128555
0.306438
-0.028377
-6.16819
6.17981
0.0425967
-0.0502411
-0.0538423
-0.0509125
-0.0531563
0.182258
-0.0296726
-6.19376
6.20848
0.0444851
-0.0508549
-0.0507582
-0.0515139
-0.0501396
0.173686
-0.0303388
-6.22281
6.23514
0.0455479
-0.0486389
-0.0494445
-0.0494162
-0.0487341
0.168578
-0.0309183
-6.24515
6.25273
0.0463885
-0.0454827
-0.0464547
-0.0465823
-0.0456287
0.160972
-0.0316001
-6.25965
6.26449
0.0472747
-0.0431044
-0.0440866
-0.0439592
-0.04323
0.153794
-0.03239
-6.26914
6.27186
0.0482155
-0.0411294
-0.0420003
-0.041635
-0.0412234
0.147419
-6.27492
-0.0333374
6.27728
-0.158872
0.0489746
25.0785
-0.6341
0.271929
-6.27919
-6.27541
-6.28023
-6.27603
25.052
-0.622198
0.270959
25.0224
-0.614205
0.270321
24.9916
-0.608632
0.269142
24.9617
-0.606103
0.267991
24.9322
-0.605226
0.267029
24.904
-0.60519
0.265465
24.8768
-0.605863
0.26401
24.8503
-0.606936
0.262386
24.8251
-0.608314
0.26059
24.8011
-0.609851
0.258422
24.7784
-0.611307
0.256676
24.7567
-0.612441
0.254568
24.7366
-0.613566
0.252432
24.7175
-0.614258
0.250234
24.7003
-0.614775
0.247816
24.6846
-0.615328
0.244991
24.6709
-0.616544
0.241554
-0.619331
0.236949
25.0021
0.000433153
0.00169582
24.9999
0.0192373
0.00342212
24.9922
0.0392957
0.00545856
24.9803
0.0593873
0.00801448
24.9628
0.0840024
0.0113561
24.937
0.117372
0.0153554
24.8948
0.164707
0.022051
24.8236
0.233598
0.0306421
6.17275
0.340726
0.0430619
6.17188
6.17306
6.17201
-0.0061543
-0.0646971
6.14721
0.0868017
0.00960278
-0.0019944
-0.0194922
-1.528
1.52274
0.0241043
0.00264901
-0.00290485
-0.0190885
-1.5042
1.49159
0.0308587
0.00372641
-0.00427417
-1.46885
0.0521799
1.47878
-0.063323
0.00543646
-0.00612423
-1.52815
0.153617
1.53963
-0.166631
0.00760047
-0.00748336
-1.53607
0.0600855
-0.0632307
1.53794
0.00873068
-1.54748
-0.00756731
0.0597894
-0.0643252
0.00919185
1.55038
-0.00739357
0.0570769
-1.55646
1.55799
-0.060642
0.00942026
-0.00743977
0.0525474
-1.56116
1.56178
-0.0552992
0.00957158
-0.007705
0.049257
-1.56271
1.56291
-0.051383
0.0096238
-0.00806139
0.0461848
-1.56281
1.56265
-0.0474938
0.00953237
-1.55853
-0.0313558
0.167493
6.18426
-0.147524
0.0377209
-1.54269
-1.56031
-1.54905
23.8692
-0.731883
0.143648
-6.1207
-5.82097
-6.10891
-5.7927
23.8814
-0.70787
0.143973
23.8919
-0.698691
0.142841
23.9018
-0.691787
0.139972
23.9105
-0.686821
0.136346
23.9178
-0.683055
0.132511
23.9245
-0.680158
0.127866
23.9304
-0.677979
0.123223
23.9359
-0.676455
0.118463
23.9413
-0.675427
0.11369
23.9468
-0.674746
0.108783
23.9524
-0.674352
0.104543
23.9588
-0.674016
0.100306
23.9656
-0.67365
0.096358
23.9733
-0.673167
0.0926212
23.9818
-0.672522
0.0889645
23.991
-0.671715
0.0851184
24.0006
-0.670778
0.0805987
-0.669703
0.0744358
25.0089
-0.000748951
0.00127336
25.0096
0.0173477
0.0026011
25.0061
0.0407899
0.00411347
24.9993
0.0633415
0.00594998
24.9893
0.0899781
0.00826061
24.9758
0.125933
0.0107386
24.9565
0.176586
0.0150986
24.9264
0.253627
0.0200483
6.21397
0.379997
0.0266419
6.2223
6.21407
6.22271
-0.00357507
-0.10484
6.19864
0.118116
0.00563352
-0.0010663
-0.0393567
-1.54211
1.53601
0.0450949
0.00142395
-0.00128437
-0.0823465
-1.50618
1.48781
0.100258
0.0017288
-0.000139002
0.00450546
-0.0748026
0.0750361
-0.00477147
0.000170831
-0.00522274
-0.162225
0.00115219
-0.010644
-0.00461242
0.181553
-1.17482
0.00403489
0.0593764
-0.0808369
-0.0149124
1.20716
0.00791053
0.0592951
-1.27177
1.28361
-0.0658618
-0.0131912
0.00927694
0.0604216
-1.31137
1.31883
-0.0662673
-0.010896
0.00939708
0.0550599
-1.33328
1.33678
-0.0590867
-0.0088657
0.00873395
0.0491024
-1.34344
1.34671
-0.0537423
-0.00735694
-1.37755
0.027851
0.168306
5.74208
-0.206145
-0.0392111
-1.48786
-1.34878
-1.47869
24.026
-0.667459
-0.205839
-5.81648
-6.16068
-5.85624
-6.16216
24.0532
-0.641033
-0.203975
24.0806
-0.63292
-0.201591
24.1086
-0.627493
-0.199822
24.1364
-0.623111
-0.198408
24.1639
-0.619852
-0.19713
24.1912
-0.617529
-0.195882
24.2182
-0.615684
-0.194593
24.2446
-0.614138
-0.193218
24.2701
-0.612706
-0.191726
24.2943
-0.61148
-0.190134
24.3172
-0.610524
-0.188429
24.3386
-0.609699
-0.186721
24.3583
-0.608672
-0.184995
24.3763
-0.607592
-0.183346
24.3928
-0.606435
-0.18189
24.408
-0.605152
-0.180889
24.422
-0.603258
-0.180641
-0.599633
-0.181586
25.0081
-0.0056115
0.000864217
25.015
0.00964966
0.00175394
25.0214
0.0330078
0.00270853
25.0251
0.0578121
0.00377183
25.0242
0.0883406
0.00495927
25.0285
0.118726
0.00599095
25.0405
0.16071
0.00749142
25.0691
0.220596
0.00835953
6.27615
0.310468
0.00824887
6.28827
6.27769
6.29168
-0.000770028
-0.10952
6.2839
0.101294
0.00122828
-4.27989e-05
-0.0443513
-1.57806
1.57987
0.0425256
5.83623e-05
0.00060878
-0.0815938
-1.60069
1.61725
0.0651122
-0.000679009
0.00295292
-0.0261986
-1.71199
1.749
0.0582401
-0.00116327
-0.0216835
-0.0271145
-0.0219865
0.00469955
0.108989
-1.71011
1.67989
-0.078076
-0.00533682
0.105777
-1.6103
0.00576129
1.59925
-0.0935477
-0.00691025
0.00641283
0.0753841
-1.58404
-0.00800413
1.58174
-0.0714908
0.00682839
0.0550063
-1.57809
1.57648
-0.0515416
-0.00869272
0.00706751
0.0565707
-1.57539
1.57388
-0.0531258
-0.00900227
0.00724277
0.0506121
-1.57283
1.57212
-0.0480516
-0.00908994
0.00731599
0.0467308
-1.56916
1.56942
-0.0452968
-0.00901162
-1.56931
0.0299283
0.174161
6.27195
-0.15491
-0.0426901
-1.56953
-1.56941
-1.57019
25.0773
-0.523082
-0.248516
-6.27447
-6.2688
-6.27851
-6.27348
25.0775
-0.515354
-0.248379
25.075
-0.504894
-0.248086
25.0726
-0.499032
-0.248628
25.0705
-0.494311
-0.249635
25.0693
-0.491305
-0.25085
25.0683
-0.488721
-0.252175
25.0677
-0.486558
-0.253518
25.0673
-0.484621
-0.254796
25.0668
-0.482555
-0.255944
25.0662
-0.480764
-0.256937
25.066
-0.479313
-0.257995
25.0654
-0.477861
-0.258434
25.0644
-0.475896
-0.258998
25.0638
-0.474763
-0.259518
25.0632
-0.473182
-0.260177
25.0628
-0.471473
-0.261144
25.0627
-0.469047
-0.262583
-0.466355
-0.26437
25.0066
-0.0098242
0.000486622
25.0164
-0.000596552
0.000964081
25.0301
0.0185063
0.00138809
25.0382
0.0488371
0.00172248
25.0554
0.0699812
0.00185518
25.0787
0.0944988
0.00158081
25.1164
0.122391
0.000526759
25.1817
0.155805
-0.00201442
6.32933
0.197354
-0.00729773
6.31815
6.33362
6.31671
-0.0860031
0.00152689
6.34767
0.0684679
-0.00235811
-0.0329925
0.00364763
6.42116
0.0884471
-0.00528958
-0.0311877
-0.0332639
-0.0304335
-6.38008
-0.0296866
0.0075901
6.49305
0.0826753
-0.0109377
-0.0289474
-0.0289287
-0.0313913
-6.45339
-0.00934433
0.0132228
-6.54119
6.49991
-0.0575247
-0.01968
0.0630808
-0.0107326
0.0623787
0.0349778
0.0198833
-6.49287
6.47471
-0.143705
-0.0293593
0.0515277
0.0341802
0.0507363
0.0582476
-6.45124
0.0250319
6.40739
-0.182653
-0.0369298
0.0574371
0.0617477
0.0609444
0.0559203
0.0280335
-6.36719
6.33929
-0.176236
-0.041577
0.0538535
0.0549654
0.0529233
0.0453733
0.0298368
-6.32565
6.31881
-0.156989
-0.0443863
0.0446284
0.0445336
0.0438913
0.0439501
0.0308485
-6.31479
6.30704
-0.152249
-0.0459546
0.0444405
0.0431521
0.0436461
0.0431727
0.031254
-6.29837
6.28939
-0.141961
-0.0466701
0.0407191
0.0424756
0.0400461
0.0382635
0.0313632
-6.28185
6.27393
-0.12528
-0.046866
0.0353344
0.0386674
0.0364607
0.136299
-6.27228
0.0315401
6.27246
-0.121225
-0.0467821
25.0728
-0.384304
-0.256358
-6.27079
-6.26922
-6.2711
-6.26893
25.0652
-0.377224
-0.255299
25.0608
-0.370457
-0.254737
25.0574
-0.365492
-0.254969
25.0554
-0.362101
-0.255388
25.0538
-0.359251
-0.255809
25.053
-0.357347
-0.25616
25.0528
-0.355708
-0.256381
25.0528
-0.353725
-0.256436
25.0535
-0.352326
-0.25632
25.0541