/*--------------------------------*- C++ -*----------------------------------*\
| =========                 |                                                 |
| \\      /  F ield         | OpenFOAM: The Open Source CFD Toolbox           |
|  \\    /   O peration     | Version:  2306                                  |
|   \\  /    A nd           | Website:  www.openfoam.com                      |
|    \\/     M anipulation  |                                                 |
\*---------------------------------------------------------------------------*/
FoamFile
{
    version     2.0;
    format      ascii;
    arch        "LSB;label=32;scalar=64";
    class       volVectorField;
    location    "1.15";
    object      U;
}
// * * * * * * * * * * * * * * * * * * * * * * * * * * * * * * * * * * * * * //

dimensions      [0 1 -1 0 0 0 0];

internalField   nonuniform List<vector> 
111542
(
(99.9934 0.00523031 0.00287253)
(99.9712 0.0107259 0.00594321)
(99.9302 0.0164496 0.00933873)
(99.8689 0.0225405 0.0135299)
(99.7857 0.0287282 0.0189078)
(99.6785 0.0342205 0.0259291)
(99.5464 0.0371407 0.0348672)
(99.3913 0.034508 0.0462216)
(99.2227 0.0216792 0.0604936)
(99.0604 -0.00776672 0.0776893)
(98.9377 -0.0595793 0.0973218)
(98.8953 -0.131441 0.118409)
(98.96 -0.205202 0.13976)
(99.1235 -0.261193 0.159318)
(99.3421 -0.288676 0.175588)
(99.5675 -0.297146 0.188447)
(99.7723 -0.295471 0.198289)
(99.9476 -0.288353 0.206064)
(100.092 -0.278894 0.212429)
(100.208 -0.269336 0.217901)
(100.298 -0.261181 0.222508)
(100.364 -0.254734 0.226532)
(100.413 -0.249765 0.230332)
(100.449 -0.246607 0.233753)
(100.474 -0.244999 0.236858)
(100.494 -0.244371 0.239827)
(100.508 -0.244693 0.242374)
(100.519 -0.245687 0.244451)
(100.527 -0.246916 0.246162)
(100.533 -0.248152 0.247476)
(100.539 -0.249291 0.248358)
(100.544 -0.250346 0.248777)
(100.548 -0.251168 0.248947)
(100.552 -0.251773 0.248965)
(100.557 -0.252248 0.248885)
(100.562 -0.252702 0.24874)
(100.569 -0.25328 0.248493)
(100.576 -0.253923 0.248298)
(100.586 -0.25471 0.248174)
(100.601 -0.255886 0.248167)
(99.9936 0.015592 0.00281333)
(99.9719 0.0319131 0.00575284)
(99.9313 0.0493054 0.00911851)
(99.8704 0.0681042 0.0132745)
(99.7865 0.0876776 0.0186005)
(99.676 0.105904 0.0255404)
(99.5357 0.117827 0.0345536)
(99.3649 0.114608 0.0461727)
(99.1696 0.0816105 0.0608968)
(98.9684 -0.00222838 0.0789324)
(98.8027 -0.154364 0.100011)
(98.7391 -0.368641 0.122622)
(98.8224 -0.592516 0.145884)
(99.0318 -0.753877 0.167367)
(99.2959 -0.833823 0.184921)
(99.5503 -0.861922 0.198225)
(99.7708 -0.860221 0.208224)
(99.954 -0.842042 0.216072)
(100.102 -0.816874 0.222503)
(100.217 -0.79047 0.227892)
(100.303 -0.766671 0.232469)
(100.367 -0.747989 0.236581)
(100.413 -0.73457 0.240431)
(100.444 -0.726136 0.244028)
(100.467 -0.720654 0.247397)
(100.484 -0.716642 0.250543)
(100.496 -0.714112 0.253357)
(100.505 -0.712845 0.25575)
(100.512 -0.712233 0.257681)
(100.518 -0.711884 0.25912)
(100.523 -0.711632 0.260081)
(100.527 -0.711476 0.260626)
(100.531 -0.711272 0.260885)
(100.535 -0.711103 0.260977)
(100.54 -0.711162 0.260993)
(100.544 -0.711674 0.260993)
(100.55 -0.712879 0.261)
(100.557 -0.714731 0.261036)
(100.566 -0.71728 0.261096)
(100.579 -0.720564 0.261248)
(99.994 0.0255959 0.00266669)
(99.9732 0.0524726 0.00544961)
(99.9342 0.0818483 0.00867189)
(99.8747 0.114513 0.012675)
(99.7905 0.150139 0.0178427)
(99.6755 0.186341 0.0246522)
(99.5218 0.216768 0.0336669)
(99.3218 0.227759 0.0455473)
(99.0726 0.192672 0.0610182)
(98.7912 0.0630459 0.0807186)
(98.5368 -0.270536 0.105008)
(98.4221 -0.732881 0.132533)
(98.5435 -1.15161 0.15857)
(98.8482 -1.39078 0.18277)
(99.1948 -1.48683 0.201671)
(99.499 -1.51273 0.214993)
(99.7482 -1.49391 0.224525)
(99.9463 -1.45336 0.231958)
(100.1 -1.40612 0.238133)
(100.214 -1.35919 0.243352)
(100.298 -1.31852 0.247871)
(100.355 -1.2836 0.252093)
(100.394 -1.2634 0.25623)
(100.421 -1.25665 0.260468)
(100.442 -1.25585 0.26479)
(100.456 -1.25705 0.268976)
(100.466 -1.2593 0.272759)
(100.472 -1.26203 0.275916)
(100.476 -1.26452 0.278313)
(100.479 -1.26632 0.279918)
(100.48 -1.26727 0.280795)
(100.482 -1.26744 0.281095)
(100.482 -1.26703 0.281022)
(100.483 -1.26632 0.280792)
(100.483 -1.26569 0.280581)
(100.483 -1.26554 0.280504)
(100.484 -1.26622 0.280592)
(100.486 -1.26789 0.28081)
(100.49 -1.27055 0.281097)
(100.497 -1.27374 0.281498)
(99.9946 0.0347914 0.00243993)
(99.9759 0.0716678 0.00499225)
(99.9404 0.112917 0.00796354)
(99.8849 0.160489 0.0116824)
(99.8039 0.215495 0.016528)
(99.6878 0.277361 0.0229908)
(99.522 0.341843 0.0317034)
(99.2857 0.396422 0.0434591)
(98.9499 0.411539 0.0592693)
(98.4498 0.212844 0.0804816)
(98.1915 0.0346669 0.0872336)
(97.841 -0.620278 0.102836)
(97.9022 -1.42287 0.116898)
(98.3781 -1.93938 0.129392)
(98.8799 -2.09107 0.141236)
(99.2768 -2.12115 0.148131)
(99.5994 -2.08103 0.151923)
(99.8463 -2.00638 0.154464)
(100.031 -1.92543 0.156647)
(100.168 -1.85236 0.158788)
(100.34 -1.9062 0.265602)
(100.379 -1.83651 0.272204)
(100.388 -1.78844 0.2777)
(100.39 -1.76256 0.28308)
(100.391 -1.74939 0.288794)
(100.388 -1.74476 0.29446)
(100.38 -1.74615 0.299503)
(100.368 -1.751 0.303486)
(100.353 -1.75717 0.306172)
(100.337 -1.7633 0.307537)
(100.32 -1.76868 0.307752)
(100.301 -1.77306 0.307136)
(100.281 -1.77658 0.306069)
(100.26 -1.7796 0.304919)
(100.238 -1.78259 0.303964)
(100.215 -1.78607 0.303353)
(100.191 -1.7905 0.303068)
(100.169 -1.79619 0.302965)
(100.147 -1.80313 0.302824)
(100.123 -1.81011 0.302556)
(99.9956 0.0424672 0.0021321)
(99.9804 0.0879397 0.00437018)
(99.9511 0.140004 0.00697865)
(99.9043 0.202335 0.0102502)
(99.8336 0.278636 0.0145293)
(99.7274 0.372563 0.0202664)
(99.5661 0.486929 0.028072)
(99.317 0.620549 0.0387327)
(98.8749 0.760418 0.0532909)
(98.5308 0.769426 0.0585409)
(97.7165 0.384167 0.0716779)
(96.9069 -0.676782 0.0885269)
(96.9923 -2.33206 0.102967)
(98.1121 -2.94635 0.116031)
(98.838 -2.98532 0.131377)
(99.3144 -2.94081 0.137459)
(99.6841 -2.81639 0.139403)
(99.9352 -2.67549 0.14115)
(100.105 -2.54673 0.143768)
(100.216 -2.44212 0.147611)
(100.288 -2.38648 0.155466)
(100.218 -2.49841 0.301911)
(100.09 -2.4816 0.308964)
(99.9626 -2.45803 0.31449)
(99.8442 -2.43547 0.319205)
(99.7289 -2.42018 0.322782)
(99.6162 -2.41134 0.324705)
(99.5081 -2.40604 0.324617)
(99.4058 -2.40202 0.322405)
(99.3099 -2.39798 0.318243)
(99.22 -2.39325 0.312562)
(99.136 -2.38771 0.305962)
(99.0572 -2.38162 0.299077)
(98.9828 -2.37553 0.292459)
(98.912 -2.37011 0.286487)
(98.8443 -2.36603 0.281306)
(98.7796 -2.36388 0.276809)
(98.7182 -2.36428 0.272695)
(98.6619 -2.36811 0.268551)
(98.6056 -2.37748 0.264096)
(99.9971 0.0477288 0.00174551)
(99.9869 0.0992925 0.00358664)
(99.9671 0.15955 0.00572175)
(99.9347 0.234015 0.00837629)
(99.8843 0.329452 0.01181)
(99.8054 0.455125 0.0163568)
(99.6788 0.624711 0.022462)
(99.4682 0.858677 0.0306685)
(99.0502 1.18893 0.0415949)
(98.6421 1.35343 0.0459169)
(97.6892 1.50133 0.0438838)
(95.5757 0.74578 0.0401472)
(94.3509 -3.39797 0.054566)
(98.1373 -4.71993 0.0475862)
(98.6739 -3.96007 0.0555099)
(99.2749 -3.88291 0.0561439)
(99.6706 -3.65051 0.0626644)
(99.8312 -3.41275 0.0669115)
(99.8565 -3.22207 0.0648138)
(99.7875 -3.05328 0.0572814)
(98.5981 -2.81568 0.177131)
(95.1582 -2.44616 0.189575)
(95.2282 -2.50566 0.183751)
(95.3096 -2.53521 0.177555)
(95.3743 -2.5552 0.170405)
(95.4255 -2.57694 0.161775)
(95.471 -2.60097 0.151599)
(95.5148 -2.6248 0.140132)
(95.5585 -2.64614 0.127852)
(95.6031 -2.66345 0.115358)
(95.6495 -2.67601 0.103239)
(95.6981 -2.6839 0.0919557)
(95.7489 -2.68786 0.0817609)
(95.8016 -2.68904 0.0727138)
(95.8555 -2.68873 0.0647051)
(95.9102 -2.68807 0.0574984)
(95.965 -2.68797 0.0507825)
(96.019 -2.68915 0.0442061)
(96.071 -2.69246 0.0374503)
(96.1271 -2.70003 0.0305842)
(99.9989 0.0496884 0.00136694)
(99.995 0.103714 0.00274932)
(99.9874 0.167773 0.00431309)
(99.9746 0.24863 0.00620241)
(99.954 0.355217 0.00854979)
(99.921 0.501056 0.0115009)
(99.8673 0.708174 0.0151909)
(99.7788 1.0152 0.0196485)
(99.6087 1.49572 0.0246001)
(99.3435 1.89812 0.0266522)
(98.6315 2.84075 0.0236644)
(95.5071 5.87079 0.0195689)
(77.0434 -4.20318 0.0530808)
(102.638 -10.2831 0.0238607)
(49.0382 -1.86843 -0.992865)
(74.7226 -4.13371 -0.357346)
(79.4639 -3.64988 -0.208347)
(82.763 -3.46858 -0.118568)
(85.1737 -3.34308 -0.077781)
(87.0513 -3.27082 -0.0565332)
(93.0313 -3.68664 -0.160455)
(96.2981 -3.30094 -0.265347)
(96.4177 -3.18077 -0.267344)
(96.5568 -3.09451 -0.268831)
(96.6795 -3.03229 -0.270378)
(96.7913 -2.98572 -0.271492)
(96.8985 -2.95008 -0.27138)
(97.0009 -2.92195 -0.269665)
(97.0966 -2.89851 -0.266504)
(97.1844 -2.87764 -0.262423)
(97.2646 -2.85804 -0.258098)
(97.3382 -2.83909 -0.254179)
(97.407 -2.82073 -0.251154)
(97.4723 -2.80319 -0.24928)
(97.5357 -2.78678 -0.248577)
(97.5982 -2.77176 -0.248875)
(97.6602 -2.75815 -0.24991)
(97.7218 -2.74562 -0.251399)
(97.7824 -2.73324 -0.253127)
(97.8543 -2.71849 -0.254978)
(100.001 0.0477781 0.00094893)
(100.004 0.099891 0.00186245)
(100.01 0.162122 0.00284168)
(100.019 0.241341 0.00392525)
(100.032 0.34668 0.00510595)
(100.053 0.491724 0.00631827)
(100.087 0.697843 0.00736991)
(100.15 1.00074 0.00777908)
(100.297 1.46229 0.00648949)
(100.348 1.87299 0.00595843)
(100.632 2.85631 0.0016616)
(102.474 5.36588 -0.00580919)
(111.151 3.79206 -0.0204435)
(109.018 -6.70458 0.0237376)
(102.779 -6.75085 -0.0265098)
(101.131 -4.94326 -0.0411557)
(100.693 -3.94688 -0.0469658)
(100.526 -3.4034 -0.048739)
(100.442 -3.08844 -0.0490248)
(100.374 -2.90513 -0.0493715)
(100.278 -2.68249 -0.135323)
(100.294 -2.27298 -0.257992)
(100.274 -2.17474 -0.260873)
(100.258 -2.12297 -0.263257)
(100.247 -2.09893 -0.266091)
(100.235 -2.08733 -0.269459)
(100.225 -2.08143 -0.273003)
(100.218 -2.07819 -0.276347)
(100.212 -2.07574 -0.2792)
(100.207 -2.07294 -0.281365)
(100.205 -2.06942 -0.282764)
(100.203 -2.06531 -0.283444)
(100.203 -2.06101 -0.283557)
(100.204 -2.05698 -0.283322)
(100.205 -2.05357 -0.282986)
(100.207 -2.05091 -0.282795)
(100.21 -2.04886 -0.282979)
(100.213 -2.04691 -0.283723)
(100.218 -2.0439 -0.285137)
(100.227 -2.03749 -0.287078)
(100.003 0.0418978 0.000505101)
(100.012 0.0876581 0.000976918)
(100.03 0.142322 0.00141062)
(100.059 0.211773 0.00173622)
(100.103 0.303478 0.00183094)
(100.17 0.42754 0.00146646)
(100.274 0.598044 0.000216203)
(100.442 0.834293 -0.00269053)
(100.761 1.1603 -0.00868425)
(100.987 1.39897 -0.0109455)
(101.844 1.85087 -0.0189618)
(103.457 1.74483 -0.034003)
(105.226 -0.261384 -0.0528091)
(104.769 -2.81928 -0.0348051)
(102.985 -3.5277 -0.0533279)
(101.778 -3.30353 -0.0681534)
(101.156 -2.94786 -0.0766878)
(100.821 -2.64909 -0.0816553)
(100.626 -2.42695 -0.0849162)
(100.495 -2.26385 -0.0874893)
(100.402 -2.13717 -0.0906511)
(100.298 -1.86591 -0.247351)
(100.26 -1.83765 -0.24899)
(100.234 -1.8184 -0.250504)
(100.218 -1.80631 -0.252428)
(100.208 -1.7975 -0.254612)
(100.2 -1.78975 -0.25667)
(100.195 -1.78229 -0.258275)
(100.192 -1.77478 -0.259239)
(100.19 -1.76695 -0.259511)
(100.191 -1.75868 -0.259165)
(100.192 -1.75006 -0.258368)
(100.195 -1.74126 -0.25733)
(100.198 -1.73251 -0.256269)
(100.203 -1.72396 -0.255385)
(100.207 -1.71569 -0.25484)
(100.212 -1.70766 -0.254762)
(100.219 -1.69966 -0.255249)
(100.227 -1.69145 -0.256384)
(100.245 -1.68307 -0.258292)
(100.004 0.0325355 0.000171597)
(100.019 0.0680642 0.000311563)
(100.047 0.110364 0.000291568)
(100.092 0.163689 -1.3163e-05)
(100.159 0.233004 -0.000798575)
(100.258 0.324062 -0.00240658)
(100.404 0.443019 -0.00538607)
(100.623 0.594154 -0.0106145)
(100.958 0.773415 -0.0195246)
(101.445 0.856254 -0.0339659)
(102.086 0.757178 -0.0557612)
(102.762 0.229642 -0.085648)
(103.121 -0.751689 -0.119086)
(102.878 -1.57334 -0.14874)
(102.242 -1.87426 -0.177385)
(101.617 -1.87651 -0.199284)
(101.173 -1.78909 -0.213347)
(100.884 -1.68419 -0.222146)
(100.689 -1.58624 -0.227966)
(100.551 -1.5013 -0.231978)
(100.454 -1.42928 -0.234909)
(100.388 -1.36675 -0.237296)
(100.341 -1.31749 -0.239389)
(100.307 -1.27818 -0.241487)
(100.282 -1.24796 -0.243657)
(100.263 -1.22501 -0.245809)
(100.249 -1.20708 -0.247826)
(100.239 -1.19251 -0.249594)
(100.231 -1.18021 -0.251024)
(100.226 -1.16943 -0.252064)
(100.222 -1.15969 -0.252713)
(100.221 -1.15076 -0.253011)
(100.22 -1.14254 -0.253036)
(100.221 -1.13502 -0.252892)
(100.222 -1.12816 -0.252704)
(100.224 -1.12194 -0.252604)
(100.227 -1.11628 -0.252729)
(100.231 -1.11104 -0.253215)
(100.237 -1.10613 -0.254208)
(100.246 -1.10165 -0.255882)
(100.005 0.0205916 -8.49842e-05)
(100.024 0.042983 -0.000230525)
(100.059 0.069625 -0.000585559)
(100.114 0.102799 -0.00132098)
(100.195 0.145332 -0.00271152)
(100.311 0.199568 -0.00513805)
(100.475 0.266882 -0.00918578)
(100.703 0.344675 -0.0156622)
(101.013 0.41995 -0.0256793)
(101.414 0.453513 -0.0405021)
(101.88 0.389623 -0.0612328)
(102.311 0.15441 -0.0881835)
(102.536 -0.261527 -0.118526)
(102.425 -0.685234 -0.147561)
(102.043 -0.925519 -0.173261)
(101.589 -0.983388 -0.193087)
(101.213 -0.954472 -0.207032)
(100.939 -0.901099 -0.21641)
(100.742 -0.846661 -0.222928)
(100.595 -0.797865 -0.227639)
(100.485 -0.757311 -0.23117)
(100.404 -0.727707 -0.233964)
(100.343 -0.708225 -0.236381)
(100.298 -0.69623 -0.238537)
(100.264 -0.689549 -0.240462)
(100.24 -0.686526 -0.242139)
(100.222 -0.68566 -0.243529)
(100.209 -0.685831 -0.244576)
(100.201 -0.686372 -0.245233)
(100.195 -0.686921 -0.245482)
(100.192 -0.687274 -0.245348)
(100.19 -0.68737 -0.244891)
(100.19 -0.687223 -0.244199)
(100.192 -0.686929 -0.243378)
(100.194 -0.686291 -0.242578)
(100.197 -0.685501 -0.241894)
(100.201 -0.684602 -0.241436)
(100.207 -0.683566 -0.241331)
(100.215 -0.682375 -0.241738)
(100.232 -0.680917 -0.242942)
(100.006 0.00704752 -0.000235715)
(100.026 0.0146745 -0.000477119)
(100.064 0.0237739 -0.00103087)
(100.124 0.0349646 -0.00193242)
(100.212 0.0492591 -0.00364614)
(100.335 0.0671844 -0.00648962)
(100.505 0.0887147 -0.0110864)
(100.732 0.112342 -0.0181256)
(101.023 0.132953 -0.0286882)
(101.373 0.13798 -0.0434742)
(101.748 0.107656 -0.0630803)
(102.072 0.0216582 -0.0872835)
(102.241 -0.116443 -0.114318)
(102.179 -0.259369 -0.141162)
(101.911 -0.35025 -0.164509)
(101.554 -0.378586 -0.183162)
(101.222 -0.373031 -0.197025)
(100.959 -0.357851 -0.206718)
(100.761 -0.342127 -0.213656)
(100.61 -0.328109 -0.218816)
(100.495 -0.316458 -0.222825)
(100.409 -0.307502 -0.226056)
(100.345 -0.300473 -0.228762)
(100.298 -0.294528 -0.231008)
(100.264 -0.288977 -0.232972)
(100.238 -0.283542 -0.234667)
(100.22 -0.278063 -0.236053)
(100.207 -0.272457 -0.237096)
(100.198 -0.266729 -0.23777)
(100.192 -0.260938 -0.238075)
(100.188 -0.255163 -0.238035)
(100.186 -0.249487 -0.2377)
(100.185 -0.244006 -0.237133)
(100.186 -0.238836 -0.236378)
(100.188 -0.23383 -0.235746)
(100.19 -0.229151 -0.235215)
(100.194 -0.224861 -0.234869)
(100.199 -0.220987 -0.234839)
(100.206 -0.217654 -0.235299)
(100.218 -0.21536 -0.236571)
(99.9938 0.00517171 0.00834483)
(99.9725 0.0105372 0.017182)
(99.933 0.0162334 0.0272102)
(99.874 0.0222931 0.0395754)
(99.794 0.0284332 0.0553733)
(99.6908 0.0338516 0.0758555)
(99.5635 0.0368521 0.102111)
(99.4143 0.034484 0.135544)
(99.2521 0.0221015 0.177399)
(99.0961 -0.00654255 0.227854)
(98.9786 -0.0570271 0.285867)
(98.9392 -0.127369 0.348602)
(99.0035 -0.198906 0.411551)
(99.1625 -0.252652 0.469146)
(99.374 -0.278776 0.517159)
(99.591 -0.286694 0.554999)
(99.7874 -0.284771 0.583987)
(99.9548 -0.277495 0.606543)
(100.093 -0.267901 0.624514)
(100.202 -0.258407 0.639241)
(100.287 -0.25019 0.65127)
(100.35 -0.243597 0.661425)
(100.398 -0.238539 0.670493)
(100.433 -0.235183 0.67844)
(100.459 -0.233296 0.685361)
(100.48 -0.232493 0.691486)
(100.497 -0.232552 0.696538)
(100.51 -0.233242 0.700568)
(100.521 -0.234271 0.7038)
(100.53 -0.235403 0.706257)
(100.538 -0.23648 0.707926)
(100.545 -0.237421 0.7088)
(100.551 -0.238167 0.709151)
(100.556 -0.238718 0.709094)
(100.562 -0.239113 0.708668)
(100.567 -0.239438 0.707882)
(100.572 -0.239782 0.706674)
(100.579 -0.240213 0.70519)
(100.587 -0.240841 0.703396)
(100.602 -0.241874 0.701235)
(99.994 0.0153881 0.00815547)
(99.9731 0.0314252 0.0167185)
(99.9341 0.0486506 0.0265924)
(99.8755 0.0672709 0.0388043)
(99.7947 0.0866485 0.0544519)
(99.6883 0.104691 0.0748276)
(99.553 0.116722 0.101341)
(99.3882 0.114052 0.135591)
(99.1997 0.0822452 0.179056)
(99.0054 0.000822054 0.232511)
(98.8452 -0.147078 0.295262)
(98.7852 -0.354883 0.364618)
(98.8681 -0.572997 0.434699)
(99.0723 -0.730683 0.498294)
(99.328 -0.807906 0.549664)
(99.5734 -0.835367 0.588608)
(99.7856 -0.833755 0.617793)
(99.9617 -0.81569 0.640297)
(100.103 -0.790527 0.658146)
(100.213 -0.76421 0.672435)
(100.296 -0.740377 0.683901)
(100.357 -0.721441 0.693698)
(100.402 -0.707674 0.702365)
(100.434 -0.698449 0.709892)
(100.458 -0.691817 0.716362)
(100.476 -0.68668 0.721983)
(100.49 -0.683029 0.72685)
(100.5 -0.680816 0.731032)
(100.509 -0.679647 0.734577)
(100.516 -0.679132 0.73748)
(100.523 -0.679004 0.739733)
(100.528 -0.679085 0.741367)
(100.533 -0.679231 0.742483)
(100.538 -0.679426 0.743157)
(100.542 -0.679746 0.743425)
(100.547 -0.680316 0.743291)
(100.552 -0.681325 0.742725)
(100.558 -0.682905 0.7417)
(100.566 -0.685163 0.740151)
(100.579 -0.688146 0.738058)
(99.9943 0.0252252 0.00773255)
(99.9744 0.0517209 0.0158607)
(99.9369 0.0807127 0.0253097)
(99.8796 0.112958 0.0370794)
(99.7986 0.148128 0.0523005)
(99.6877 0.183908 0.07238)
(99.5392 0.214109 0.0990254)
(99.3458 0.225331 0.134272)
(99.1044 0.191402 0.180343)
(98.8314 0.0647263 0.239178)
(98.5847 -0.261592 0.311346)
(98.4738 -0.713812 0.392805)
(98.5928 -1.12197 0.4748)
(98.8901 -1.35456 0.547996)
(99.2264 -1.44815 0.603782)
(99.5204 -1.47453 0.643156)
(99.7613 -1.45656 0.671284)
(99.953 -1.41634 0.69265)
(100.101 -1.36896 0.709523)
(100.212 -1.32138 0.722749)
(100.294 -1.27923 0.732611)
(100.351 -1.2425 0.741058)
(100.39 -1.22122 0.748852)
(100.419 -1.21313 0.755891)
(100.44 -1.21036 0.762085)
(100.456 -1.20932 0.767543)
(100.466 -1.20952 0.772407)
(100.472 -1.21074 0.776737)
(100.476 -1.21244 0.78052)
(100.479 -1.21419 0.783726)
(100.481 -1.21566 0.786338)
(100.482 -1.21673 0.788384)
(100.482 -1.21732 0.789923)
(100.483 -1.21748 0.791015)
(100.483 -1.21742 0.79169)
(100.484 -1.21741 0.791922)
(100.485 -1.21782 0.791618)
(100.487 -1.21899 0.790631)
(100.491 -1.22109 0.788828)
(100.499 -1.22384 0.786275)
(99.9949 0.0342609 0.00707789)
(99.977 0.0706006 0.0145442)
(99.9429 0.11125 0.0232719)
(99.8896 0.158113 0.0342273)
(99.8116 0.212268 0.0485454)
(99.6995 0.273142 0.0677027)
(99.5392 0.336545 0.0936559)
(99.3101 0.390111 0.128928)
(98.983 0.40458 0.176743)
(98.4941 0.208392 0.241076)
(98.2362 0.0267903 0.273544)
(97.8919 -0.631061 0.348565)
(97.9561 -1.42752 0.42939)
(98.4279 -1.94322 0.504994)
(98.9182 -2.09374 0.562046)
(99.3053 -2.12753 0.598422)
(99.6219 -2.09118 0.6213)
(99.8655 -2.01771 0.637588)
(100.048 -1.93572 0.650758)
(100.184 -1.86019 0.662081)
(100.352 -1.88005 0.788736)
(100.391 -1.80276 0.796372)
(100.4 -1.74842 0.801346)
(100.403 -1.71687 0.805887)
(100.405 -1.69809 0.811169)
(100.402 -1.68825 0.817173)
(100.393 -1.68535 0.823529)
(100.38 -1.68727 0.829836)
(100.363 -1.69214 0.835718)
(100.345 -1.69862 0.840876)
(100.325 -1.70574 0.845146)
(100.304 -1.71278 0.848488)
(100.282 -1.71929 0.850957)
(100.26 -1.72503 0.85264)
(100.238 -1.73001 0.853597)
(100.216 -1.73445 0.853804)
(100.193 -1.73878 0.853098)
(100.172 -1.74355 0.851186)
(100.153 -1.74919 0.847693)
(100.132 -1.75504 0.84234)
(99.9959 0.0417778 0.00618938)
(99.9814 0.0865485 0.0127411)
(99.9533 0.137792 0.0204142)
(99.9084 0.199084 0.0300776)
(99.8404 0.274019 0.042774)
(99.738 0.366121 0.0598995)
(99.5817 0.478051 0.083393)
(99.3395 0.608426 0.115862)
(98.907 0.743885 0.160749)
(98.5649 0.747439 0.186065)
(97.759 0.359759 0.250063)
(96.9591 -0.698473 0.332608)
(97.0502 -2.33709 0.429847)
(98.1604 -2.9413 0.521152)
(98.8661 -2.97039 0.582029)
(99.3291 -2.93658 0.608979)
(99.6972 -2.82284 0.62011)
(99.9513 -2.68659 0.628714)
(100.126 -2.55692 0.639073)
(100.243 -2.44677 0.651108)
(100.324 -2.37136 0.662833)
(100.276 -2.48581 0.785155)
(100.15 -2.46492 0.782599)
(100.025 -2.43442 0.776408)
(99.9105 -2.40358 0.770941)
(99.798 -2.37993 0.767146)
(99.6866 -2.36374 0.764696)
(99.5775 -2.35304 0.763006)
(99.4715 -2.34619 0.761456)
(99.3688 -2.34203 0.759538)
(99.2698 -2.33955 0.756959)
(99.1748 -2.33788 0.753648)
(99.0843 -2.33635 0.749681)
(98.9987 -2.33452 0.7452)
(98.9182 -2.33225 0.740297)
(98.8429 -2.32965 0.734924)
(98.7729 -2.32716 0.728788)
(98.7085 -2.32564 0.721343)
(98.6513 -2.32664 0.711843)
(98.5968 -2.333 0.699755)
(99.9973 0.046968 0.00516257)
(99.9877 0.0976848 0.0105513)
(99.9688 0.15691 0.0168283)
(99.9379 0.230016 0.0246796)
(99.8896 0.323561 0.0349098)
(99.8135 0.446531 0.0485942)
(99.6909 0.612165 0.0672083)
(99.4854 0.840247 0.0927191)
(99.0741 1.16149 0.127537)
(98.6685 1.32179 0.148077)
(97.7207 1.46259 0.17555)
(95.6213 0.697338 0.226647)
(94.4114 -3.43275 0.324393)
(98.2159 -4.7077 0.446386)
(98.7161 -3.86087 0.528777)
(99.2738 -3.83239 0.540664)
(99.6733 -3.64282 0.553778)
(99.848 -3.41486 0.584166)
(99.902 -3.20419 0.616944)
(99.8847 -2.99305 0.633534)
(99.0366 -2.63917 0.536568)
(95.3044 -2.34602 0.400011)
(95.3624 -2.40345 0.388419)
(95.4357 -2.43127 0.3768)
(95.4928 -2.44725 0.367617)
(95.5364 -2.46176 0.360547)
(95.5735 -2.47633 0.354495)
(95.6068 -2.49072 0.348488)
(95.6367 -2.50507 0.341912)
(95.6637 -2.51955 0.334538)
(95.6888 -2.53406 0.326462)
(95.7132 -2.54821 0.318)
(95.738 -2.56149 0.309476)
(95.7644 -2.57336 0.301198)
(95.793 -2.5834 0.293348)
(95.8245 -2.59142 0.285888)
(95.859 -2.59751 0.278491)
(95.8966 -2.60226 0.270461)
(95.9365 -2.60709 0.260615)
(95.988 -2.6154 0.24706)
(99.999 0.0488792 0.00391765)
(99.9955 0.101985 0.0079944)
(99.9884 0.164897 0.0126427)
(99.9765 0.244195 0.0182781)
(99.9572 0.348554 0.0253379)
(99.9256 0.491109 0.0343381)
(99.8737 0.693271 0.045859)
(99.7869 0.992712 0.0603225)
(99.6169 1.4614 0.0774264)
(99.3519 1.85715 0.0871772)
(98.6385 2.7858 0.0955962)
(95.5106 5.77386 0.106113)
(77.2078 -4.41054 0.177538)
(42.5895 0.816095 0.333104)
(75.4576 -4.5354 -1.0328)
(81.2259 -4.33822 -1.18095)
(84.044 -4.02891 -1.08051)
(85.3103 -3.59115 -0.876208)
(85.9446 -3.19338 -0.666215)
(91.4037 -3.35313 -0.487358)
(95.9793 -3.29201 -0.611469)
(96.0985 -3.17628 -0.597047)
(96.2383 -3.09447 -0.584089)
(96.3599 -3.03483 -0.575096)
(96.4708 -2.98803 -0.570042)
(96.5802 -2.94975 -0.567691)
(96.6903 -2.91785 -0.566746)
(96.8003 -2.89098 -0.566182)
(96.9088 -2.86818 -0.565298)
(97.0147 -2.84874 -0.563716)
(97.1164 -2.83211 -0.561322)
(97.2127 -2.81775 -0.558177)
(97.3026 -2.80518 -0.554454)
(97.3855 -2.79394 -0.550367)
(97.4613 -2.78361 -0.546176)
(97.5306 -2.7738 -0.542267)
(97.5942 -2.76401 -0.539196)
(97.6529 -2.75341 -0.537834)
(97.7205 -2.73995 -0.539373)
(100.001 0.0469005 0.00266386)
(100.004 0.0981116 0.0053728)
(100.01 0.159216 0.00829994)
(100.019 0.236883 0.011554)
(100.033 0.339985 0.0151561)
(100.053 0.481721 0.0189908)
(100.087 0.682923 0.02261)
(100.148 0.978514 0.0248024)
(100.289 1.42934 0.0226769)
(100.338 1.83397 0.0198809)
(100.612 2.80533 0.00608563)
(102.423 5.29757 -0.0394468)
(110.929 3.94696 -0.104572)
(108.964 -6.47693 -0.299235)
(102.784 -6.70031 -0.393935)
(101.14 -4.91409 -0.449541)
(100.693 -3.93769 -0.491277)
(100.516 -3.4038 -0.518857)
(100.423 -3.08413 -0.532377)
(100.348 -2.88735 -0.535446)
(100.234 -2.65999 -0.574587)
(100.264 -2.29379 -0.710992)
(100.251 -2.19551 -0.71038)
(100.241 -2.14233 -0.707678)
(100.236 -2.11588 -0.706216)
(100.23 -2.10173 -0.706738)
(100.227 -2.09414 -0.70885)
(100.225 -2.09076 -0.712041)
(100.225 -2.0899 -0.715828)
(100.225 -2.09018 -0.719746)
(100.226 -2.09069 -0.723416)
(100.226 -2.09096 -0.726585)
(100.226 -2.09076 -0.729137)
(100.226 -2.09008 -0.731063)
(100.225 -2.08898 -0.732517)
(100.223 -2.08754 -0.733759)
(100.221 -2.08573 -0.735193)
(100.22 -2.08323 -0.737337)
(100.22 -2.07918 -0.740752)
(100.227 -2.07152 -0.745571)
(100.003 0.0411102 0.0014577)
(100.012 0.0860977 0.00289928)
(100.03 0.139762 0.00421064)
(100.059 0.207837 0.00522479)
(100.102 0.29758 0.00560217)
(100.168 0.4188 0.00470726)
(100.269 0.585244 0.00135681)
(100.432 0.815789 -0.00661981)
(100.743 1.13393 -0.0232998)
(100.967 1.36855 -0.0348318)
(101.807 1.81343 -0.0750431)
(103.399 1.70682 -0.15138)
(105.145 -0.268601 -0.263123)
(104.695 -2.79675 -0.383376)
(102.943 -3.51839 -0.475282)
(101.751 -3.29771 -0.535094)
(101.138 -2.94733 -0.569839)
(100.811 -2.6535 -0.588319)
(100.62 -2.43495 -0.597796)
(100.491 -2.27452 -0.602372)
(100.397 -2.1451 -0.60421)
(100.296 -1.86014 -0.746408)
(100.261 -1.83065 -0.745022)
(100.236 -1.81065 -0.743448)
(100.22 -1.79748 -0.742595)
(100.21 -1.78708 -0.742472)
(100.203 -1.77745 -0.74278)
(100.199 -1.76804 -0.743202)
(100.197 -1.75871 -0.743467)
(100.197 -1.74931 -0.743376)
(100.198 -1.73984 -0.742827)
(100.2 -1.73041 -0.741816)
(100.203 -1.72114 -0.740422)
(100.206 -1.71216 -0.738771)
(100.209 -1.70351 -0.737084)
(100.212 -1.69516 -0.735629)
(100.216 -1.68696 -0.73475)
(100.221 -1.67861 -0.734852)
(100.229 -1.66984 -0.73639)
(100.244 -1.66098 -0.739788)
(100.004 0.0319374 0.000470758)
(100.019 0.0668413 0.000841278)
(100.046 0.108354 0.000810556)
(100.09 0.160645 -7.35752e-06)
(100.156 0.228459 -0.00221997)
(100.253 0.317423 -0.00679735)
(100.395 0.433522 -0.0153021)
(100.608 0.580903 -0.0302681)
(100.935 0.755512 -0.0558225)
(101.41 0.836831 -0.0977962)
(102.036 0.74111 -0.162058)
(102.697 0.226605 -0.25219)
(103.046 -0.728976 -0.359536)
(102.806 -1.53486 -0.47111)
(102.185 -1.83233 -0.562558)
(101.578 -1.83426 -0.625449)
(101.15 -1.74846 -0.664558)
(100.872 -1.64618 -0.688301)
(100.685 -1.55096 -0.703103)
(100.552 -1.46853 -0.712322)
(100.459 -1.39837 -0.717754)
(100.395 -1.33629 -0.72037)
(100.349 -1.2879 -0.722738)
(100.314 -1.24937 -0.72528)
(100.288 -1.21937 -0.727643)
(100.269 -1.19617 -0.729708)
(100.253 -1.17785 -0.731515)
(100.241 -1.163 -0.733057)
(100.233 -1.15063 -0.734266)
(100.226 -1.14003 -0.73508)
(100.222 -1.13065 -0.73548)
(100.22 -1.12216 -0.735491)
(100.218 -1.11437 -0.735192)
(100.219 -1.10717 -0.734695)
(100.22 -1.10049 -0.734184)
(100.222 -1.09427 -0.733881)
(100.225 -1.0884 -0.734058)
(100.229 -1.08277 -0.735034)
(100.235 -1.07735 -0.737146)
(100.244 -1.07238 -0.740637)
(100.005 0.0201821 -0.00025163)
(100.023 0.0422038 -0.000649097)
(100.058 0.0683405 -0.00162798)
(100.112 0.100933 -0.00370722)
(100.191 0.142519 -0.00769533)
(100.304 0.195518 -0.0146814)
(100.464 0.261252 -0.0263233)
(100.686 0.337232 -0.0450021)
(100.988 0.410703 -0.0739682)
(101.378 0.443783 -0.117114)
(101.83 0.381956 -0.177977)
(102.25 0.152572 -0.257516)
(102.469 -0.254571 -0.349661)
(102.362 -0.668419 -0.442052)
(101.989 -0.901063 -0.521566)
(101.55 -0.956008 -0.580423)
(101.188 -0.926936 -0.620167)
(100.926 -0.874609 -0.646444)
(100.737 -0.821529 -0.664267)
(100.598 -0.774184 -0.676613)
(100.493 -0.735053 -0.685198)
(100.415 -0.706625 -0.691268)
(100.356 -0.688076 -0.696163)
(100.312 -0.676541 -0.700238)
(100.278 -0.669964 -0.703441)
(100.252 -0.666778 -0.705786)
(100.232 -0.665566 -0.707352)
(100.217 -0.665278 -0.708186)
(100.206 -0.665311 -0.708299)
(100.198 -0.665352 -0.707721)
(100.193 -0.665222 -0.706517)
(100.19 -0.664872 -0.7048)
(100.188 -0.664298 -0.702719)
(100.188 -0.66355 -0.700453)
(100.19 -0.662615 -0.698259)
(100.193 -0.66154 -0.696344)
(100.197 -0.660311 -0.694958)
(100.203 -0.65891 -0.694405)
(100.212 -0.657335 -0.695046)
(100.228 -0.655644 -0.697337)
(100.006 0.00689559 -0.000650354)
(100.025 0.0144272 -0.00141063)
(100.063 0.0233239 -0.00291132)
(100.122 0.0343392 -0.0055744)
(100.207 0.0482646 -0.0104825)
(100.328 0.0657436 -0.0186128)
(100.493 0.086755 -0.0316368)
(100.713 0.109845 -0.0517683)
(100.997 0.129919 -0.0819235)
(101.337 0.13498 -0.1247)
(101.701 0.105795 -0.182123)
(102.015 0.0226146 -0.25371)
(102.18 -0.111398 -0.334566)
(102.121 -0.250311 -0.4155)
(101.862 -0.337972 -0.486649)
(101.518 -0.365172 -0.542286)
(101.198 -0.359632 -0.582004)
(100.948 -0.344798 -0.609353)
(100.759 -0.32954 -0.628533)
(100.617 -0.316024 -0.642336)
(100.508 -0.304908 -0.652483)
(100.425 -0.296445 -0.660109)
(100.364 -0.289759 -0.666103)
(100.317 -0.283955 -0.670925)
(100.281 -0.278491 -0.674887)
(100.254 -0.273115 -0.678001)
(100.233 -0.267668 -0.680249)
(100.217 -0.262081 -0.681652)
(100.204 -0.256386 -0.682249)
(100.194 -0.250658 -0.682098)
(100.187 -0.244975 -0.681291)
(100.183 -0.239413 -0.679956)
(100.18 -0.234043 -0.678241)
(100.18 -0.228922 -0.676289)
(100.181 -0.224065 -0.674556)
(100.183 -0.219523 -0.673114)
(100.188 -0.215328 -0.672167)
(100.194 -0.211516 -0.67201)
(100.202 -0.208227 -0.672988)
(100.213 -0.205995 -0.675534)
(99.9943 0.00504187 0.0131083)
(99.9745 0.0102649 0.0269528)
(99.9378 0.0158378 0.042947)
(99.883 0.0217806 0.0626729)
(99.8088 0.0278252 0.0878249)
(99.7129 0.0332266 0.120385)
(99.5948 0.0364189 0.162447)
(99.4567 0.0346172 0.216288)
(99.3068 0.0234286 0.283882)
(99.1631 -0.00301462 0.365956)
(99.0557 -0.0501839 0.461096)
(99.0214 -0.115542 0.564671)
(99.0836 -0.182225 0.668543)
(99.2339 -0.232055 0.763906)
(99.4321 -0.25603 0.843737)
(99.6346 -0.263145 0.90672)
(99.8171 -0.260984 0.955122)
(99.9722 -0.25363 0.992439)
(100.099 -0.244041 1.02157)
(100.2 -0.234741 1.04463)
(100.277 -0.226841 1.06309)
(100.336 -0.22049 1.07843)
(100.38 -0.215706 1.09197)
(100.414 -0.212766 1.10433)
(100.44 -0.211423 1.11553)
(100.462 -0.211122 1.12543)
(100.48 -0.211453 1.13386)
(100.496 -0.212122 1.14085)
(100.51 -0.212871 1.1465)
(100.522 -0.213493 1.15089)
(100.533 -0.213875 1.1541)
(100.542 -0.213992 1.15625)
(100.55 -0.213863 1.15754)
(100.557 -0.21355 1.15813)
(100.562 -0.213132 1.15814)
(100.567 -0.212724 1.15762)
(100.572 -0.212446 1.15661)
(100.577 -0.212403 1.15509)
(100.583 -0.212718 1.15292)
(100.594 -0.213591 1.1498)
(99.9944 0.0149828 0.0127908)
(99.9751 0.0306001 0.0263073)
(99.9389 0.0474211 0.0419959)
(99.8845 0.0656359 0.0614384)
(99.8095 0.0846503 0.0863826)
(99.7106 0.10252 0.118952)
(99.5851 0.114882 0.161568)
(99.4323 0.113527 0.216974)
(99.2575 0.084786 0.287838)
(99.0772 0.00928561 0.375878)