/*--------------------------------*- C++ -*----------------------------------*\
| =========                 |                                                 |
| \\      /  F ield         | OpenFOAM: The Open Source CFD Toolbox           |
|  \\    /   O peration     | Version:  2306                                  |
|   \\  /    A nd           | Website:  www.openfoam.com                      |
|    \\/     M anipulation  |                                                 |
\*---------------------------------------------------------------------------*/
FoamFile
{
    version     2.0;
    format      ascii;
    arch        "LSB;label=32;scalar=64";
    class       volVectorField;
    location    "1.55";
    object      Force;
}
// * * * * * * * * * * * * * * * * * * * * * * * * * * * * * * * * * * * * * //

dimensions      [1 1 -2 0 0 0 0];

internalField   uniform (0 0 0);

boundaryField
{
    walls
    {
        type            calculated;
        value           uniform (0 0 0);
    }
    inlet
    {
        type            calculated;
        value           uniform (0 0 0);
    }
    outlet
    {
        type            calculated;
        value           uniform (0 0 0);
    }
    NASA
    {
        type            calculated;
        value           nonuniform List<vector> 
14179
(
(-0.0146078 -0.134319 9.10088e-06)
(-0.0130841 -0.108137 6.58102e-06)
(-0.0678501 -0.548566 0.000900597)
(-0.101515 -0.816592 0.00326737)
(-0.0668039 -0.540623 0.000464212)
(-0.110218 -0.886522 0.00360281)
(0.201219 0.873316 -0.000347545)
(0.0828222 0.415716 -6.75921e-05)
(0.652902 3.20052 0.00360366)
(0.0896613 0.450089 -7.15124e-05)
(-0.00113153 -0.0114209 6.32715e-06)
(-0.0179043 -0.146568 0.000584356)
(0.130038 0.649555 -0.00239313)
(-0.0356953 -0.324661 0.00141397)
(0.0616578 0.307669 -0.00110427)
(1.37766 0.929331 0.00283095)
(1.3903 0.921463 -0.000420852)
(0.0215668 0.120822 -5.56019e-05)
(0.15966 0.947494 -0.000123562)
(1.28255 0.850164 -0.00346341)
(-0.0171328 -0.239696 -3.83238e-06)
(-0.0214162 -0.199096 -0.000112728)
(-0.019602 -0.272104 -0.000221865)
(-0.00879899 -0.0640549 3.95852e-06)
(-0.0132745 -0.109762 2.55464e-05)
(-0.0095119 -0.0692457 2.12974e-05)
(-0.0129868 -0.106985 0.000437275)
(-0.0151791 -0.108794 0.00045986)
(-0.0133744 -0.12218 0.000498821)
(-0.015714 -0.215725 0.00395814)
(0.046541 0.203245 6.5683e-06)
(0.0522664 0.246438 -3.79565e-06)
(0.0562026 0.264993 -9.53422e-05)
(0.0459189 0.200007 -2.31525e-05)
(0.0709112 0.260151 -9.83803e-06)
(0.0751005 0.275282 -6.13798e-06)
(0.0374871 0.13603 -6.61122e-06)
(0.0391037 0.141774 -2.90515e-06)
(-0.00188835 -0.0091033 0.00015385)
(-0.0130817 -0.0636609 0.00073514)
(0.16777 0.612728 -0.00180778)
(0.0979102 0.353027 -0.000653777)
(0.0954907 0.479087 -8.01409e-05)
(-0.00611594 -0.04296 4.12834e-06)
(-0.00556077 -0.0390583 6.25183e-07)
(0.156195 0.784222 -0.000124979)
(-0.00982058 -0.0679886 0.00032118)
(0.0965561 0.482103 -0.00111874)
(0.0896935 0.448262 -0.00116755)
(0.107039 0.43733 -0.000374065)
(0.0840258 0.312357 -2.35122e-05)
(0.0836507 0.310968 -6.00273e-05)
(-0.0631234 1.54019 -0.000211507)
(1.38744 0.922486 -0.000758191)
(-0.06067 1.49113 7.83558e-05)
(-0.0026268 1.28754 -0.000193781)
(0.0706095 1.06726 2.29542e-05)
(0.0606127 0.916317 -0.000175975)
(-0.00250689 1.2488 -2.33747e-05)
(0.0992185 0.389991 -3.54433e-05)
(0.16036 0.950736 -0.000206999)
(0.00791662 0.0288223 3.41143e-06)
(-0.0229524 0.569761 -0.00138076)
(0.927352 0.63293 0.0763991)
(-0.000755448 0.534908 -0.00159076)
(0.0270687 0.41096 -0.00110234)
(0.12716 0.744346 0.00604747)
(-0.014716 -0.147222 1.22152e-05)
(-0.0145517 -0.133888 1.7711e-05)
(-0.0998852 -0.803595 0.00321078)
(-0.0115653 -0.0916935 6.31026e-06)
(-0.0130652 -0.107988 1.40347e-05)
(1.32739 0.878856 -0.00423016)
(1.28051 0.848084 -0.00386816)
(0.345019 2.04606 -0.00893682)
(0.259744 1.5348 -0.0061482)
(-0.111599 -0.898869 0.00217099)
(-0.0562036 -0.349884 0.00145981)
(-0.0553059 -0.346659 0.00148124)
(-0.0420621 -0.246853 0.00105384)
(0.155881 0.67243 -0.00284307)
(0.174499 0.754538 -0.0031239)
(0.76152 1.30748 -5.13647e-05)
(0.761915 1.3062 -0.000320198)
(0.0837419 0.420224 -7.1504e-05)
(0.0759545 0.364879 -5.09462e-05)
(-0.000463126 -0.00434892 -4.1531e-07)
(0.00124916 0.00608537 -2.41059e-07)
(0.00128055 0.00626357 -2.08392e-06)
(-0.000452038 -0.00427264 4.00774e-07)
(0.0919745 0.461618 -5.37638e-05)
(0.0880911 0.454334 -5.70388e-05)
(-0.0201313 -0.164582 0.000700887)
(-0.0135058 -0.0968323 0.000433141)
(-0.0203266 -0.145187 0.00061685)
(-0.0123238 -0.0850246 0.000404814)
(-0.0180699 -0.123982 0.000483839)
(0.0850789 0.424563 -0.00178424)
(-0.0201406 -0.183291 0.000763257)
(-0.024847 -0.341451 0.00159205)
(-0.0209853 -0.294827 0.000627229)
(0.0797844 0.398516 -0.00164657)
(1.37478 0.92331 -0.00267017)
(0.103993 0.612938 -9.07656e-05)
(0.115031 0.643387 -4.36437e-05)
(0.115972 0.648177 -9.15447e-05)
(0.184976 1.28758 -0.000168423)
(0.100081 0.593569 -8.38124e-05)
(0.160304 0.950845 -0.000132117)
(0.02583 0.0244229 1.95699e-05)
(0.306442 -0.112927 0.00307435)
(0.332362 -0.131769 0.00156298)
(0.00967086 0.00926268 -2.49816e-05)
(-0.00626122 -0.0269544 0.000187996)
(0.0224065 0.0826287 -0.000286796)
(0.00294021 0.0102493 3.0686e-05)
(0.0226369 0.0911771 -0.0002124)
(-0.00914621 -0.0408615 0.000190517)
(-0.00136881 -0.00815262 0.000114964)
(0.00474619 0.0198934 -2.79482e-05)
(-0.0178998 -0.0865974 0.000364699)
(-0.00109247 0.73202 -0.00279053)
(0.0406562 0.607551 -0.00240028)
(-0.00159116 0.980768 -0.00380377)
(0.0317745 0.481205 -0.00221541)
(-0.0348045 0.869465 -0.0035093)
(1.10852 0.745722 -0.00333263)
(-0.0471671 1.16578 -0.00448176)
(0.109242 0.646597 -0.00358645)
(0.155103 0.607445 -0.00272469)
(0.116811 0.456861 -0.0018147)
(0.107476 0.392205 -0.00153771)
(0.151683 0.554224 -0.00217962)
(0.0624919 0.225496 -0.000881939)
(0.0851354 0.307729 -0.00128009)
(-0.0132547 -0.149323 3.96566e-06)
(-0.0170175 -0.237756 2.55491e-05)
(-0.0106266 -0.0818277 5.90419e-06)
(-0.00864894 -0.0629666 7.29857e-06)
(0.000569639 0.00156554 0.539457)
(-0.0130096 -0.102383 0.000425062)
(0.000540236 0.00149614 0.513052)
(-0.0144682 -0.110259 0.000467701)
(0.000855766 0.00184393 0.583386)
(-0.0131057 -0.130868 0.000600288)
(0.00110503 0.00229443 0.584295)
(-0.0122159 -0.140735 0.00143954)
(0.0520605 0.245454 -4.17766e-05)
(0.0388542 0.176701 -1.30741e-05)
(0.0391662 0.178142 -3.09493e-05)
(0.0461363 0.200924 -2.56166e-05)
(0.0453893 0.199909 -1.52176e-05)
(0.0456228 0.200956 -3.19579e-05)
(0.0709265 0.260037 -1.63289e-05)
(0.0237627 0.118171 -1.92112e-05)
(0.0212159 0.107621 -1.75682e-05)
(0.037464 0.135862 -8.80837e-06)
(0.0334247 0.117615 -7.30276e-06)
(-0.00634274 -0.029055 0.000271407)
(-0.00540524 -0.0257676 0.000293895)
(0.000423798 0.0012039 0.321747)
(0.000423398 0.00115843 0.314774)
(0.00041341 0.00113671 0.311259)
(0.000323244 0.00113814 0.356752)
(0.0920288 0.313612 -0.00033421)
(0.157565 0.550975 0.00260818)
(-8.64542e-06 0.00116916 0.33485)
(0.000338767 0.000580104 0.30256)
(0.00012218 0.000401163 0.107202)
(0.0805789 0.282873 -0.000499929)
(0.284307 0.660491 -8.98876e-06)
(0.166815 0.588106 4.95838e-05)
(0.165125 0.582193 -5.15164e-05)
(0.0741665 0.346379 -4.64276e-05)
(0.0761765 0.355799 -7.6328e-05)
(0.120638 0.57624 -7.70576e-05)
(0.0745964 0.332181 -7.2757e-05)
(0.0773655 0.351142 -4.36508e-05)
(0.0793888 0.36027 -7.90998e-05)
(0.0736396 0.32801 -3.36957e-05)
(-0.00500889 -0.0351244 3.30676e-06)
(-0.00604222 -0.0424459 3.7892e-06)
(0.145993 0.773389 -6.52338e-05)
(0.270829 0.467153 0.0103434)
(0.00107065 0.00431667 0.872897)
(0.0003531 0.00222784 0.416383)
(0.0494372 0.143828 -0.000200396)
(-0.0118192 -0.0737448 0.000394133)
(-0.0118805 -0.0750154 0.000541907)
(0.000986814 0.00256514 0.685808)
(0.000341622 0.000639422 0.311563)
(0.0957573 0.491552 -0.000163501)
(0.000534897 0.00066994 0.375693)
(0.139386 0.732705 0.00357781)
(0.000563516 0.00141911 0.349153)
(0.00041419 0.00121002 0.33151)
(-0.000322212 0.000936023 0.355054)
(7.04242e-05 0.000525501 0.112391)
(0.0799732 0.382057 -0.00102639)
(0.102517 0.476325 -0.00023105)
(0.000463095 0.000448029 0.206111)
(9.74658e-05 0.000615045 0.107614)
(0.168328 0.707484 0.000155738)
(0.0840445 0.312425 -3.44044e-05)
(0.0800312 0.30636 -2.90247e-05)
(0.0953627 0.388753 -5.21308e-05)
(0.0669553 0.269673 -1.52831e-05)
(-0.876615 2.80246 -0.0215006)
(-0.061724 1.51189 -8.59008e-05)
(-0.19096 1.78479 0.000774003)
(0.0687116 1.03731 -0.000111214)
(0.0534931 1.14279 -7.50639e-05)
(-0.00251466 1.24881 -7.1457e-05)
(0.0307704 1.15537 -5.58808e-05)
(0.108702 1.19323 -9.13746e-05)
(0.13723 1.771 -9.88015e-05)
(0.1351 1.74392 -0.000132561)
(0.108777 1.19397 -8.50209e-05)
(0.126023 1.28751 -0.000122614)
(0.133983 1.24645 -1.82182e-05)
(0.1371 1.27609 -0.000152782)
(0.124298 1.26907 -2.42689e-05)
(0.073747 0.305594 -4.917e-05)
(0.0661413 0.262458 -3.99715e-05)
(0.100341 0.39427 -4.90825e-05)
(0.113368 0.767851 -0.00012782)
(0.106993 0.673799 -9.41592e-05)
(-0.00033609 0.00122947 0.573992)
(0.000949768 0.00371384 0.904695)
(0.00139314 0.00467018 0.000123585)
(0.000409867 0.00388849 0.748182)
(0.00251753 0.00875438 0.000111564)
(0.000502842 0.0105701 0.275671)
(-0.0610302 0.585301 -0.00198189)
(0.00752104 -0.000569725 1.7542)
(0.000379859 0.000950942 0.304826)
(0.0141647 0.518388 -0.00160377)
(0.000767585 0.000426089 0.245799)
(0.0232508 0.487114 -0.0013846)
(0.0613421 0.52794 -0.00160276)
(0.0610576 0.517972 -0.00155368)
(0.000382129 0.000770485 0.245124)
(0.00041174 0.000843729 0.269715)
(0.0575265 0.530925 -0.00150197)
(0.0523017 0.527829 -0.00120084)
(0.0473505 0.518416 0.000136453)
(2.25126e-05 -0.000214138 0.226159)
(-0.0193147 -0.106039 0.00135481)
(0.000206539 0.00147005 0.508767)
(0.0912558 0.507567 -0.0011402)
(0.00041612 0.00117183 0.321938)
(0.000418747 0.00117709 0.323165)
(0.482523 -0.192221 -0.00374191)
(0.222763 0.210631 0.00183297)
(0.000185878 0.000210131 0.0778723)
(-0.0534603 -0.525699 0.00147331)
(-0.0705065 -0.569501 0.00160469)
(-0.056427 -0.554375 0.00193758)
(-0.0708865 -0.572525 0.00164557)
(-0.0766102 -0.618048 0.00217188)
(-0.0598193 -0.587259 0.00225168)
(-0.0842739 -0.679096 0.00261836)
(0.177037 0.76633 -0.00317743)
(0.444874 2.17867 -0.00881516)
(0.180595 0.782134 -0.00323278)
(0.424407 2.07789 -0.00843282)
(-0.0669634 -0.541774 0.000522421)
(-0.0421131 -0.262718 0.00107423)
(-0.10571 -0.850052 0.00341486)
(-0.0477625 -0.29752 0.00122095)
(1.38754 0.919704 -0.000995346)
(1.38968 0.921043 -0.000462844)
(0.210331 0.912932 -0.000446568)
(0.649516 3.1869 -0.00273854)
(0.601232 2.94915 -0.00151903)
(0.229175 0.994644 -0.000788078)
(0.430372 2.55135 -0.0013788)
(0.445281 2.64013 -0.00240556)
(-0.00176118 -0.0141918 1.38469e-05)
(-0.00124016 -0.0115898 7.27361e-06)
(0.0213608 0.120732 -0.000107045)
(0.0218601 0.123058 -6.98023e-05)
(0.0513329 0.222911 -0.000785421)
(0.0377638 0.171657 -0.000602469)
(0.0614707 0.267699 -0.000982915)
(0.0294874 0.13315 -0.000436209)
(-0.109341 -0.880088 0.00357416)
(-0.0694131 -0.504548 0.00205721)
(0.0189569 0.0894169 -0.00023694)
(-0.0101523 -0.0565371 0.000291181)
(0.062854 0.229221 -0.000966664)
(0.0707572 0.25801 -0.00106471)
(0.0341173 0.122997 -0.000520679)
(0.0394939 0.142374 -0.00058812)
(0.265362 1.20013 -0.000494447)
(0.167802 0.727744 -0.000179748)
(0.300949 1.42249 -0.000615218)
(0.140695 0.705839 -0.000179242)
(-0.0190076 -0.15996 0.000197655)
(-0.0436836 -0.323721 0.00039198)
(-0.00709205 -0.0518074 -6.22403e-06)
(-0.000215495 -0.00645569 4.3943e-06)
(-0.0191206 -0.130906 5.82884e-05)
(-0.0253669 -0.177158 0.000115877)
(0.0961201 0.39303 9.37938e-05)
(0.0832815 0.309639 -0.000136903)
(0.0834947 0.310399 -8.27427e-05)
(0.107424 0.440758 -0.000777473)
(0.163791 0.719483 -0.000297847)
(0.140408 0.647085 -0.000157213)
(0.171135 0.752362 -0.000329846)
(0.179681 0.837935 -0.000179106)
(-0.00264063 1.25928 -0.000210285)
(0.0655278 0.98992 -0.000456089)
(-0.00269206 1.24194 -0.000470053)
(0.0619478 0.936534 -0.000220914)
(-0.0625299 1.52633 -0.00023765)
(1.38897 0.92183 -0.000451553)
(-0.0619639 1.51221 -0.000557982)
(0.519133 4.45296 -0.00252962)
(0.0881028 0.346238 -0.000100097)
(0.0816837 0.320839 -0.000173705)
(0.0733423 0.268849 -0.000132361)
(0.0784549 0.287655 -2.32728e-05)
(0.0559282 0.293148 -0.0001704)
(0.181675 0.896678 -0.00126914)
(0.0208408 0.115898 -8.22394e-05)
(0.0462864 0.248297 -0.000113652)
(0.784763 4.90937 0.00138413)
(0.374595 2.50268 0.000107755)
(0.0423107 0.15341 -7.48105e-05)
(0.0423352 0.15354 -6.02332e-06)
(1.26429 0.839998 -0.0023726)
(0.0898805 0.622456 -0.00253598)
(0.246318 0.231055 -0.000915799)
(0.497099 -0.206103 0.000358484)
(0.233275 0.219501 -0.000948941)
(0.516095 -0.214345 0.00010796)
(0.0713741 0.26155 -1.19537e-05)
(0.0337264 0.118572 -3.55346e-06)
(0.0373462 0.135372 -4.99591e-06)
(0.284174 0.660204 -3.09758e-05)
(0.273736 0.803582 -0.000119287)
(0.000877352 0.0028683 0.738329)
(0.000352739 0.00148703 0.364788)
(0.00053176 0.00069179 0.384673)
(-0.196463 1.82055 -0.000252669)
(-0.0628941 1.53686 -0.000109559)
(1.38317 0.922998 -0.00142973)
(0.0302774 0.0286248 1.6837e-05)
(0.341066 -0.140179 0.000125456)
(0.339706 -0.138109 0.000543279)
(0.0284208 0.0268237 4.60101e-06)
(0.000528604 0.00169334 0.551809)
(0.000406978 0.000862085 0.382513)
(0.00037673 0.000967705 0.343361)
(0.000585415 0.00146493 0.366954)
(-0.09109 -0.733447 0.00289687)
(1.36428 0.903366 -0.00435822)
(1.35111 0.894621 -0.00431347)
(1.32433 0.876847 -0.00422126)
(1.35023 0.89403 -0.00431116)
(0.395266 1.93416 -0.0078673)
(0.173924 0.75225 -0.00312131)
(0.175763 0.760689 -0.0031553)
(0.416863 2.04079 -0.0082917)
(0.268938 1.58939 -0.00640697)
(0.28747 1.69922 -0.00681165)
(-0.0239658 -0.14174 0.000595155)
(-0.0306456 -0.180394 0.000757038)
(-0.0550847 -0.342769 0.00142029)
(-0.0497687 -0.309879 0.0012748)
(-0.0402011 -0.235848 0.000998453)
(-0.0331568 -0.194927 0.000819468)
(0.252835 2.15164 -0.00852937)
(0.239972 2.04137 -0.00818321)
(0.0256561 0.0947197 -0.000339736)
(0.0241027 0.097419 -0.000386127)
(0.0358589 0.145818 -0.000327491)
(0.0337589 0.124867 -0.000473587)
(0.00211224 0.00836996 3.8677e-05)
(0.0283595 0.121452 -0.000337237)
(0.037502 0.162069 -0.000535026)
(0.0227774 0.101466 -0.000266226)
(0.0417471 0.154594 -0.000602388)
(0.0459641 0.187448 -0.000468703)
(0.0360474 0.133384 -0.000510884)
(0.0425076 0.634947 -0.00249547)
(-0.00167709 1.02406 -0.00397137)
(-0.00187246 1.12868 -0.00437457)
(0.0467986 0.69931 -0.00275308)
(-0.0545812 1.34782 -0.00518734)
(1.31454 0.87033 -0.00418107)
(-0.0570663 1.40882 -0.00542491)
(-0.0490099 1.21102 -0.00465926)
(-0.0533767 1.31827 -0.00507405)
(1.31169 0.868435 -0.00417202)
(-0.00192757 1.15704 -0.00448357)
(0.0511131 0.764899 -0.00300338)
(-0.00203651 1.21327 -0.00470317)
(0.0481088 0.719375 -0.00280328)
(0.225703 1.33438 -0.00517553)
(0.410305 2.5525 -0.0123478)
(0.236402 1.5751 -0.00633315)
(0.246322 1.45468 -0.00592998)
(0.403625 2.5177 -0.0100456)
(0.376189 2.34569 -0.0095647)
(0.194954 1.29632 -0.00641309)
(-0.0812747 -0.596966 0.00199743)
(-0.102414 -0.824373 0.0034221)
(-0.0664658 -0.441373 0.00181717)
(-0.0563508 -0.351283 0.0014862)
(-0.079694 -0.534562 0.00211051)
(-0.0526085 -0.328756 0.00142221)
(-0.02327 -0.129655 0.000586803)
(-0.0438666 -0.257863 0.00112556)
(0.0055613 0.0210938 0.000163691)
(-0.0464173 -0.274099 0.00121431)
(0.229905 1.03321 -0.0044695)
(0.178214 0.770179 -0.00316581)
(0.236389 1.11413 -0.00455537)
(0.176063 0.761115 -0.00313797)
(0.223508 1.00784 -0.00414339)
(0.240175 1.13119 -0.00502208)
(0.366155 1.7899 -0.0074617)
(0.104774 0.409701 -0.0016407)
(0.0885435 0.346153 -0.00141816)
(0.0944605 0.344606 -0.0013693)
(0.0744524 0.271491 -0.00111064)
(0.0859558 0.336067 -0.00139046)
(0.0799898 0.312806 -0.0013101)
(0.0548093 0.197711 -0.000782801)
(0.0420148 0.151467 -0.000619634)
(0.125509 0.290952 -0.00113796)
(0.106725 0.247299 -0.000927973)
(-0.0207202 -0.157087 0.000676239)
(-0.0181573 -0.129914 0.000564385)
(0.0807411 0.412778 -0.00196693)
(0.0852946 0.425825 -0.00170336)
(0.123404 0.651617 -0.00325269)
(-0.0193264 -0.191077 0.000726837)
(-0.0199488 -0.181952 0.000763648)
(-0.0172412 -0.189815 0.000473637)
(-0.0213204 -0.295798 0.00115515)
(0.076635 0.366848 -0.00162801)
(0.0811963 0.405424 -0.00161165)
(-0.00386738 -0.0164019 0.000121107)
(0.00635629 0.0245849 1.53954e-05)
(-0.000314243 -0.00199635 7.88554e-05)
(0.0132833 0.0486892 -0.000123155)
(0.0176055 0.647011 -0.002496)
(-0.00131286 0.845747 -0.00328048)
(0.0268321 0.566426 -0.00226561)
(0.0360124 0.539266 -0.00219709)
(-0.105572 1.00346 -0.00525046)
(-0.0411432 1.01971 -0.0039694)
(1.22835 0.82039 -0.000775322)
(-0.461587 1.50215 -0.00531209)
(-0.0450223 1.11371 -0.0042984)
(-0.14107 1.31269 -0.00496333)
(-0.0117142 -0.0612531 0.000309689)
(-0.00847815 -0.0436774 0.000232917)
(-0.0102803 -0.0527019 0.000274822)
(-0.0098798 -0.0518706 0.000267778)
(-0.0248029 -0.13618 0.000484531)
(0.000846868 0.00179169 0.390621)
(0.0582458 0.391986 -0.00158653)
(0.0918454 0.636213 -0.00267963)
(0.0602758 0.405356 -0.00169971)
(0.125386 0.457715 -0.00177627)
(0.152162 0.555747 -0.00216026)
(0.0722311 0.260726 -0.00100828)
(0.0611249 0.213871 -0.000835804)
(0.0802337 0.281241 -0.0012748)
(0.0881605 0.318421 -0.00124913)
(0.446822 -0.186714 -0.00243831)
(0.210206 0.193051 7.11698e-05)
(0.256893 0.238958 -0.000750533)
(0.520457 -0.217117 -0.000713269)
(0.213987 0.927958 -0.00371626)
(0.563548 2.76237 -0.0108639)
(0.22574 0.978977 -0.00386782)
(0.544174 2.66727 -0.0105844)
(-0.0675222 -0.546049 0.000744584)
(-0.00253325 -0.0188984 3.32174e-05)
(-0.00226841 -0.0172681 2.52964e-05)
(0.228032 0.989367 -0.00134843)
(0.613769 3.01091 -0.00502167)
(0.208763 0.905984 -0.00148367)
(-0.0615639 -0.447677 0.00179867)
(0.175852 0.773472 -0.000608109)
(0.142887 0.659591 -0.000595723)
(0.17619 0.775017 -0.000701604)
(0.142715 0.658727 -0.00052212)
(0.0599593 0.219646 -0.000191746)
(0.0640103 0.234566 -0.000174285)
(-0.033972 -0.249187 0.00021755)
(0.161221 0.798087 -0.000718695)
(0.0630546 0.331644 -0.000297836)
(0.0320599 0.116146 -0.000101549)
(0.0346308 0.125508 -9.16637e-05)
(1.39017 0.92147 -0.000381062)
(0.0197571 0.0185386 -6.01727e-06)
(0.337843 -0.140216 6.7161e-06)
(0.0244734 0.0229801 -1.03e-05)
(0.333724 -0.138446 3.8904e-07)
(-0.0215592 -0.136113 0.000539411)
(-0.0239268 -0.150698 0.000602433)
(-0.0400844 -0.250222 0.00102193)
(-0.0958693 -0.771569 0.00306902)
(-0.0351758 -0.21999 0.000894718)
(0.182399 0.790103 -0.00326309)
(0.194219 0.842047 -0.00346387)
(0.104236 0.456355 -0.00178668)
(0.0782421 0.35928 -0.00140193)
(0.107744 0.471822 -0.00185068)
(0.0749188 0.343887 -0.00133747)
(0.0448007 0.204374 -0.000748186)
(0.070083 0.305721 -0.00114655)
(0.076988 0.336187 -0.00127828)
(0.0506721 0.231615 -0.000867019)
(0.057342 0.209789 -0.000913721)
(0.0557905 0.203978 -0.000888267)
(0.0611018 0.222857 -0.000945363)
(0.0573515 0.209274 -0.00089902)
(0.0146478 0.0749959 -0.000270415)
(0.0696012 0.341626 -0.00131301)
(-0.0689122 -0.500772 0.00203652)
(0.0265711 0.127537 -0.000409852)
(-0.00636503 -0.0363113 0.000199534)
(0.0337016 0.163117 -0.000565804)
(0.0311227 0.112613 -0.000496317)
(0.029786 0.107693 -0.000474704)
(0.0329172 0.118683 -0.000505967)
(0.0303984 0.109654 -0.000474962)
(1.32639 0.878189 -0.00422438)
(1.29446 0.857055 -0.0040442)
(0.126866 0.11951 -0.000551484)
(0.359421 -0.149223 0.000363936)
(0.369618 -0.153456 0.000376029)
(0.115045 0.108364 -0.000503846)
(0.475658 -0.197239 0.000431233)
(0.217055 0.204438 -0.000908916)
(0.202947 0.191215 -0.000856912)
(0.455646 -0.189047 0.000428461)
(-2.23884e-05 -0.0203552 3.38313e-05)
(9.46342e-05 -0.0117552 2.77325e-05)
(-0.0526893 -0.518299 0.00122042)
(-0.00013965 -0.0289344 8.21315e-05)
(-6.57777e-05 -0.0235175 5.53044e-05)
(-0.0689506 -0.557186 0.00132014)
(-0.0549675 -0.540246 0.00175158)
(-0.000179992 -0.0318816 0.000113613)
(-0.000119454 -0.0274354 9.06863e-05)
(-0.0731153 -0.59024 0.00190044)
(-0.0735957 -0.594063 0.00193674)
(-8.54403e-05 -0.0249013 9.93289e-05)
(-0.0587358 -0.57676 0.00214589)
(-0.000321457 -0.0422444 0.000159815)
(-0.0813221 -0.655577 0.00245254)
(1.38105 0.914602 -0.00433237)
(1.37915 0.913316 -0.0043586)
(1.37668 0.911645 -0.0043772)
(1.3811 0.9146 -0.00436793)
(0.189965 0.82402 -0.00332272)
(0.519073 2.5442 -0.0101876)
(0.534599 2.62042 -0.0104163)
(0.188596 0.817896 -0.00332885)
(0.17786 0.77002 -0.00318911)
(0.234524 1.05846 -0.00434626)
(0.265318 1.2518 -0.00508986)
(0.438323 2.14642 -0.00869299)
(0.179336 0.776546 -0.0032126)
(0.241831 1.09184 -0.00446916)
(0.254761 1.20164 -0.00490113)
(0.430872 2.10974 -0.00855991)
(1.38564 0.918394 -0.00196768)
(1.38577 0.918519 -0.00157058)
(1.38569 0.918476 -0.0010732)
(1.38598 0.918667 -0.00150892)
(0.448165 2.65683 -0.00269927)
(0.478471 2.83612 -0.00361629)
(-0.0018901 -0.014953 1.60326e-05)
(-0.0673574 -0.544774 0.000688123)
(-0.00213018 -0.016417 2.24504e-05)
(0.0206106 0.116405 -0.00019343)
(0.0208865 0.118012 -0.000163816)
(0.0212338 0.120026 -0.00011872)
(0.0210346 0.118874 -0.000153423)
(0.236748 1.02742 -0.000953302)
(0.235587 1.02222 -0.00127075)
(0.608361 2.98427 -0.00378064)
(-0.0555834 -0.369406 0.00149471)
(-0.043895 -0.273695 0.00112019)
(-0.0650684 -0.472946 0.001908)
(-0.0459021 -0.286058 0.00117239)
(-0.0602189 -0.399913 0.00162511)
(0.4365 3.73901 -0.00296281)
(0.45947 3.93467 -0.00257493)
(0.0832059 0.309363 -0.000156525)
(0.107442 0.440866 0.000335041)
(0.107487 0.441073 -0.000878287)
(0.083066 0.308866 -0.000211915)
(0.139298 0.642263 -0.000403467)
(0.174452 0.767135 -0.000426867)
(0.175687 0.772693 -0.000520309)
(0.142354 0.656888 -0.000448261)
(0.107427 0.44083 0.000230029)
(0.0828816 0.308205 -0.000285759)
(0.10733 0.440444 -0.000980247)
(0.0830026 0.308639 -0.000232559)
(0.0655838 0.991633 -0.00049235)
(-0.00274844 1.26399 -0.000555687)
(-0.00265742 1.20236 -0.00076673)
(0.0704112 1.06575 -0.000723012)
(-0.0615916 1.50121 -0.00102372)
(1.38836 0.92023 -0.000782515)
(-0.0619984 1.51133 -0.00131028)
(-0.0624421 1.52352 -0.000657942)
(-0.0613424 1.49536 -0.000929376)
(1.38949 0.920959 -0.000690989)
(-0.00270557 1.22224 -0.00083267)
(0.0736912 1.11532 -0.000980375)
(-0.0028351 1.28209 -0.00113102)
(0.0725864 1.09888 -0.000801413)
(0.282007 1.27579 -0.00060535)
(0.217327 0.943277 -0.000561172)
(0.663887 3.25735 -0.00230858)
(0.384836 1.81958 -0.00151063)
(0.317114 1.49933 -0.000699256)
(0.644322 3.16109 -0.00195751)
(0.220561 0.957272 -0.00066509)
(0.33597 1.5199 -0.00122565)
(0.0786473 0.308878 -0.000187311)
(0.0702842 0.275978 -0.000200721)
(0.0727829 0.266746 -0.000147192)
(0.0658599 0.241349 -0.000166311)
(0.0690688 0.271193 -0.000206917)
(0.688317 4.30576 -0.00272819)
(0.445165 2.63909 -0.00173118)
(0.68536 4.28921 -0.00284255)
(0.415127 2.777 -0.00220223)
(0.425926 2.84836 -0.00187463)
(0.443577 2.63015 -0.00201444)
(-0.0319742 -0.235249 0.000138041)
(-0.0206087 -0.139463 0.000123834)
(-0.00163238 -0.0134801 1.16047e-05)
(-0.0197454 -0.134397 7.94855e-05)
(-0.00154575 -0.0131287 1.00002e-05)
(0.0623722 0.32751 -0.000184522)
(0.158951 0.785971 -0.000443548)
(0.161296 0.798119 -0.000541646)
(0.0473153 0.254933 -0.000228232)
(0.0214537 0.121198 -9.46991e-05)
(0.0473887 0.254807 -0.00014593)
(0.0215381 0.121518 -8.14609e-05)
(0.0412344 0.149462 -8.15042e-05)
(0.0359967 0.130463 -8.86844e-05)
(0.0650247 0.23712 -0.000994089)
(0.0674677 0.246012 -0.00102406)
(0.031472 0.110003 -0.000466978)
(0.0355959 0.128322 -0.000539346)
(0.0373209 0.130451 -0.000538455)
(0.0372703 0.134353 -0.000560039)
(0.273193 0.802145 -0.000330609)
(0.273565 0.803113 -0.000199103)
(0.28421 0.660436 -0.000215138)
(0.284302 0.660623 -0.000178321)
(-0.195678 1.81289 -0.000311317)
(-0.0618157 1.50972 -0.000381361)
(1.38976 0.921558 -0.000381557)
(-0.842984 2.74113 -0.000858368)
(-0.0617241 1.50695 -0.000470107)
(-0.194572 1.80114 -0.00063392)
(0.0727966 0.26692 -0.000109184)
(0.0757515 0.277807 -6.97847e-05)
(0.0423681 0.153669 -5.73494e-05)
(0.0386543 0.135904 -6.45109e-05)
(0.036023 0.126657 -3.57755e-06)
(0.0433234 0.15716 -2.64278e-05)
(0.413826 2.44932 -0.00968035)
(0.382792 2.26534 -0.00902286)
(-0.000461553 -0.00571453 3.50963e-05)
(-0.00314102 -0.0212257 9.78755e-05)
(-0.0280772 -0.176263 0.000711179)
(-0.0249967 -0.15729 0.000630164)
(-0.00784208 -0.0484342 0.000209198)
(-0.00435922 -0.0282786 0.000126316)
(1.36291 0.902465 -0.00435361)
(1.37181 0.908384 -0.00437647)
(1.37779 0.912376 -0.0043821)
(1.3725 0.908847 -0.00437717)
(-0.0215703 -0.127878 0.000537684)
(-0.0159161 -0.0951616 0.000401611)
(0.347798 2.05718 -0.00819581)
(0.372524 2.20432 -0.0087871)
(-0.0944323 -0.760108 0.00301844)
(-0.0294796 -0.184901 0.000747238)
(-0.033461 -0.209428 0.00085061)
(-0.00944674 -0.0577208 0.000247078)
(-0.0139337 -0.0836894 0.000354368)
(0.197444 0.856114 -0.00350215)
(0.510336 2.50131 -0.0100504)
(0.189452 0.821546 -0.00334635)
(0.47604 2.33246 -0.00941764)
(0.282166 2.40215 -0.00953795)
(0.290409 2.47272 -0.00982741)
(0.0663885 0.271453 -0.00071923)
(0.0538554 0.199661 -0.000793348)
(0.0566493 0.210059 -0.000836681)
(0.062514 0.255517 -0.001327)
(0.0993387 0.434758 -0.00169644)
(0.0664707 0.304776 -0.00117529)
(0.0949862 0.415568 -0.00161513)
(0.070478 0.323324 -0.00125326)
(0.0598986 0.222154 -0.00088686)
(0.0575791 0.21352 -0.000851445)
(0.0711134 0.29089 -0.000775218)
(-0.00235551 1.37379 -0.00532414)
(0.0573422 0.858654 -0.00336705)
(0.058627 0.878007 -0.00344152)
(-0.00230155 1.34734 -0.00522196)
(-0.0642456 1.58484 -0.00610118)
(1.36104 0.901208 -0.00434667)
(-0.0649618 1.60227 -0.00616758)
(-0.00237443 1.38289 -0.0053573)
(0.0600812 0.899947 -0.00352452)
(-0.00240619 1.3959 -0.0054065)
(0.0590507 0.884396 -0.0034659)
(-0.0638189 1.57439 -0.00606305)
(1.35829 0.899385 -0.00433769)
(-0.0626402 1.54553 -0.00595181)
(0.316008 2.69145 -0.010651)
(0.310199 2.64176 -0.0104625)
(0.0435514 0.161311 -0.000631244)
(0.0478366 0.17726 -0.000698882)
(0.0560723 0.229023 -0.00118111)
(0.0526568 0.1952 -0.000774636)
(0.0607138 0.248114 -0.000651276)
(0.0492775 0.182622 -0.000721353)
(0.0836637 0.365629 -0.00140478)
(0.0611236 0.280022 -0.00107215)
(0.0888386 0.388458 -0.00150181)
(0.0564306 0.258289 -0.00098003)
(-0.0577407 1.42531 -0.00549011)
(-0.0599953 1.48071 -0.0057013)
(1.33808 0.885961 -0.00426781)
(0.0519441 0.777438 -0.00305326)
(-0.0020707 1.22915 -0.00476637)
(-0.00217485 1.28431 -0.00497763)
(0.0542657 0.812333 -0.00318842)
(-0.00220669 1.30051 -0.00504052)
(0.0567902 0.850318 -0.0033357)
(0.0550582 0.824255 -0.00323365)
(-0.00227688 1.33592 -0.00517944)
(-0.0606693 1.49725 -0.00576525)
(1.34349 0.889549 -0.00428496)
(-0.0621615 1.53383 -0.00590867)
(0.0747597 0.292876 -0.00124371)
(0.0749212 0.293376 -0.00124633)
(0.0551309 0.201384 -0.00087507)
(0.05541 0.202542 -0.000882012)
(0.0751667 0.294649 -0.00124986)
(0.239295 1.1281 -0.00461681)
(0.402198 1.96843 -0.00803323)
(0.224643 1.01318 -0.00416978)
(0.173903 0.752335 -0.00312933)
(0.174924 0.756916 -0.00314423)
(0.231676 1.04546 -0.00429637)
(0.41008 2.00736 -0.00815857)
(0.250679 1.18226 -0.0048279)
(0.0762106 0.298187 -0.00126163)
(0.0758381 0.296778 -0.00125736)
(0.07491 0.293284 -0.00124567)
(0.055163 0.201455 -0.000874475)
(0.0565833 0.206511 -0.00089007)
(0.2623 1.74774 -0.00699134)
(0.418241 2.60929 -0.010463)
(0.275057 1.62561 -0.00653093)
(0.281553 1.66414 -0.00668277)
(0.448492 2.79848 -0.0111925)
(0.438854 2.73828 -0.0109621)
(0.26893 1.79205 -0.00715351)
(-0.00119256 -0.00922417 6.73591e-05)
(-0.0260209 -0.153635 0.000644578)
(0.0534855 0.261527 -0.000981061)
(0.0067098 0.0330015 -9.6049e-05)
(-0.028436 -0.16761 0.000703093)
(-0.00870527 -0.0500781 0.000237721)
(-0.0657097 -0.436187 0.00178857)
(-0.0533733 -0.332131 0.00137251)
(-0.0662065 -0.481143 0.00194518)
(-0.0516221 -0.321305 0.00132319)
(-0.0617862 -0.410235 0.00167085)
(0.459608 2.86803 -0.0114607)
(0.468772 2.92538 -0.0116785)
(0.292151 1.94733 -0.00774733)
(0.286271 1.90801 -0.00759714)
(-0.0204334 -0.114011 0.000512444)
(-0.0378463 -0.222119 0.000936215)
(0.0468733 0.228659 -0.000843305)
(0.00343267 0.0156618 -2.36666e-05)
(0.0407089 0.197998 -0.000715286)
(-0.0354776 -0.208372 0.000875922)
(-0.0116962 -0.0663454 0.000306085)
(0.0290337 0.104859 -0.000460971)
(0.0294462 0.106436 -0.000469162)
(0.0290286 0.104812 -0.000460088)
(0.0298866 0.107831 -0.000469026)
(0.121231 0.354985 -0.00138625)
(0.14727 0.431446 -0.00171976)
(0.195287 0.453035 -0.0018621)
(0.190021 0.440808 -0.00181012)
(0.162576 0.37709 -0.00153649)
(0.170772 0.396127 -0.00162187)
(0.15428 0.452036 -0.00180881)
(-0.607511 1.97852 -0.00727425)
(1.3213 0.874808 -0.00420324)
(-0.0563394 1.39099 -0.00535551)
(-0.169057 1.57218 -0.00598603)
(-0.580061 1.88929 -0.00700741)
(-0.510054 1.66068 -0.00600918)
(-0.52825 1.72028 -0.00633087)
(-0.146313 1.36141 -0.00517974)
(-0.050519 1.2481 -0.00479981)
(1.30471 0.863788 -0.00412466)
(-0.56283 1.83331 -0.00674582)
(0.086537 0.315625 -0.00126213)
(0.079652 0.290492 -0.00117813)
(0.140051 0.131943 -0.00060456)
(0.397925 -0.165211 0.000408345)
(0.382814 -0.158934 0.000391421)
(0.15377 0.14488 -0.000657809)
(0.0534201 0.186855 -0.000737212)
(0.0498857 0.179896 -0.000717218)
(0.0453752 0.163605 -0.000662504)
(0.0400493 0.139996 -0.000571476)
(0.184461 0.173813 -0.000781912)
(0.415574 -0.172528 0.000417328)
(0.433622 -0.179984 0.000427785)
(0.169406 0.159624 -0.000718947)
(0.593024 2.9087 -0.00511823)
(0.214561 0.930993 -0.00160645)
(0.227223 0.985742 -0.00196241)
(0.624139 3.06106 -0.00607581)
(0.21416 0.928952 -0.00281881)
(0.597269 2.92834 -0.00844325)
(0.184984 0.802468 -0.00232873)
(0.697707 3.42108 -0.0103162)
(0.231642 1.00464 -0.00372745)
(0.645609 3.16507 -0.011229)
(0.2002 0.868213 -0.00309807)
(0.656838 3.22019 -0.0118769)
(-0.0677607 -0.547886 0.000850672)
(-0.0346538 -0.253916 0.000420445)
(-0.0480375 -0.350161 0.00136004)
(-0.0602532 -0.438227 0.00175817)
(-0.0985589 -0.793018 0.00316343)
(-0.0531104 -0.522339 0.0013691)
(-0.00537522 -0.162397 0.000453526)
(-0.00533098 -0.161149 0.000413645)
(-2.9989e-07 -0.0187076 5.40394e-05)
(8.88844e-05 -0.0121743 2.95827e-05)
(-0.00267755 -0.0197878 3.6439e-05)
(-0.0682704 -0.551844 0.00109456)