/*--------------------------------*- C++ -*----------------------------------*\
| =========                 |                                                 |
| \\      /  F ield         | OpenFOAM: The Open Source CFD Toolbox           |
|  \\    /   O peration     | Version:  2306                                  |
|   \\  /    A nd           | Website:  www.openfoam.com                      |
|    \\/     M anipulation  |                                                 |
\*---------------------------------------------------------------------------*/
FoamFile
{
    version     2.0;
    format      ascii;
    arch        "LSB;label=32;scalar=64";
    class       volScalarField;
    location    "1.55";
    object      p;
}
// * * * * * * * * * * * * * * * * * * * * * * * * * * * * * * * * * * * * * //

dimensions      [0 2 -2 0 0 0 0];

internalField   nonuniform List<scalar> 
111542
(
61.7065
63.0056
66.1174
71.2067
78.3362
87.6976
99.4311
113.552
129.56
146.042
160.471
168.893
167.32
154.615
133.866
110.8
89.4038
71.1547
56.1331
44.1071
34.6266
27.3383
21.8526
17.6753
14.4926
12.0455
10.064
8.52017
7.36719
6.48045
5.7789
5.20734
4.77813
4.42015
4.08043
3.71522
3.26894
2.7341
2.00653
0.98941
60.5344
61.7912
64.8681
69.8942
77.0126
86.5198
98.7672
113.99
132.013
151.771
170.597
183.006
181.471
164.756
138.682
111.891
88.5579
69.3373
53.9254
41.8567
32.6002
25.6002
20.3459
16.4691
13.5496
11.2763
9.48687
8.10181
7.03611
6.19985
5.53121
4.99135
4.55596
4.18451
3.83605
3.47108
3.04388
2.507
1.78719
0.824811
58.217
59.404
62.3355
67.1761
74.1795
83.8349
96.8336
113.966
135.883
162.423
190.269
210.883
210.22
184.323
147.924
114.749
87.7248
66.542
50.361
38.2028
29.225
22.8277
18.194
14.7719
11.969
9.68006
7.94358
6.67321
5.7332
5.02443
4.48711
4.0792
3.7646
3.50884
3.27487
3.02416
2.70926
2.27059
1.62984
0.704022
54.8216
55.8799
58.5151
62.9398
69.5209
78.9663
92.4057
111.52
138.702
177.18
211.692
253.488
258.29
216.838
164.393
123.969
91.3257
66.8166
49.0963
36.3091
23.2709
17.3145
14.8426
13.3256
11.2827
9.20854
7.55968
6.31712
5.34785
4.57696
3.96948
3.49507
3.12327
2.82283
2.56336
2.31103
2.01744
1.61526
1.00064
0.0361716
50.4797
51.329
53.4657
57.1213
62.7205
71.0929
83.6698
102.863
132.694
177.079
253.374
338.619
361.079
252.34
167.648
119.353
80.6513
54.9708
38.3401
27.7584
21.0427
6.7917
5.95943
6.29608
5.50283
4.59175
3.94882
3.47916
3.09752
2.78924
2.55102
2.36938
2.22974
2.11497
2.01134
1.90055
1.74893
1.49674
1.01086
-0.0407654
45.4123
45.9652
47.3785
49.847
53.7383
59.7796
69.2983
84.7524
110.922
165.407
258.742
452.745
615.082
240.792
168.205
110.322
64.1856
39.05
24.6739
16.212
15.0305
13.15
12.4121
7.84824
4.7155
3.2266
2.42771
1.84491
1.3919
1.06443
0.840333
0.690184
0.592796
0.533847
0.502552
0.487936
0.476145
0.454628
0.430976
0.543453
39.9391
40.1204
40.6241
41.5452
43.062
45.5159
49.5018
56.0272
66.8319
106.317
182.327
413.496
1943.76
-428.938
210.48
74.0394
27.9927
13.9301
7.10526
-1.38045
-6.26876
14.8866
14.7004
9.36317
5.9963
4.5893
3.87165
3.30742
2.83846
2.47931
2.21246
2.01035
1.85596
1.7378
1.64871
1.58273
1.52659
1.47482
1.43152
1.45961
34.4715
34.2462
33.7579
32.9711
31.8195
30.1423
27.5563
23.1455
14.5667
17.1232
0.760031
-159.657
-1002.26
-1041.27
-312.797
-102.711
-47.6978
-26.9059
-17.1663
-10.5266
-3.88021
-7.91064
-5.99717
-4.33293
-3.44398
-2.54836
-1.68348
-1.00054
-0.487406
-0.0819929
0.25267
0.532718
0.768839
0.968169
1.13459
1.26627
1.3473
1.34472
1.1871
0.727349
29.3975
28.835
27.4145
25.023
21.4082
16.0308
7.89307
-4.86925
-25.852
-48.7536
-121.882
-266.09
-476.35
-505.237
-320.096
-175.581
-100.998
-61.5373
-39.2889
-25.1393
-15.0975
-8.25817
-4.2
-1.31875
0.391629
1.42749
2.13802
2.62095
2.92348
3.10164
3.20041
3.24653
3.25443
3.2308
3.17496
3.07888
2.91713
2.63776
2.13936
1.21773
25.2194
24.3383
22.1527
18.4771
12.9499
4.8666
-6.95265
-24.4522
-50.8926
-91.8721
-149.361
-221.925
-287.29
-295.572
-238.174
-165.179
-109.853
-74.255
-51.1308
-35.0955
-23.7322
-16.183
-11.1858
-7.6623
-5.18267
-3.42823
-2.12193
-1.11712
-0.342767
0.255789
0.725072
1.09783
1.39297
1.6192
1.77458
1.85072
1.82195
1.64201
1.24545
0.577894
22.2276
21.1272
18.4166
13.8771
7.10901
-2.5886
-16.2944
-35.4765
-61.9857
-97.6896
-142.598
-191.589
-230.049
-237.153
-206.762
-157.944
-113.481
-80.9708
-58.1329
-41.5099
-29.1747
-20.1694
-13.6136
-8.83203
-5.35311
-2.83441
-1.00116
0.341272
1.32018
2.02641
2.52992
2.88201
3.11642
3.25127
3.28433
3.22443
3.04558
2.69808
2.10609
1.13699
20.669
19.4706
16.479
11.5298
4.14971
-6.26708
-20.713
-40.3092
-66.2008
-98.7523
-136.505
-174.127
-201.722
-207.729
-187.963
-151.936
-114.403
-83.9046
-61.2482
-44.3673
-31.6399
-22.1535
-15.2215
-10.205
-6.62087
-4.04586
-2.18037
-0.816509
0.187415
0.928747
1.47721
1.88192
2.17604
2.3818
2.44324
2.43339
2.30781
2.01304
1.49628
0.704002
61.2403
62.4869
65.5344
70.4754
77.3845
86.442
97.8158
111.473
126.912
142.809
156.722
164.786
163.066
150.606
130.371
107.88
87.0625
69.3032
54.6997
42.9943
33.8007
26.7053
21.3098
17.2325
14.1203
11.688
9.75767
8.25479
7.10865
6.22911
5.54462
5.00687
4.58552
4.23592
3.9146
3.57998
3.18625
2.68388
1.99209
1.01115
60.0757
61.2925
64.2839
69.1614
76.0607
85.266
97.1186
111.836
129.25
148.353
166.552
178.641
176.815
160.411
134.994
108.92
86.2187
67.5218
52.5431
40.8178
31.8157
24.9632
19.7905
15.989
13.1354
10.907
9.15547
7.79885
6.7517
5.93301
5.28473
4.76786
4.35176
4.00094
3.67937
3.3487
2.96522
2.47346
1.80074
0.869879
57.7777
58.9254
61.7674
66.4593
73.2408
82.5822
95.1519
111.718
132.922
158.632
185.619
205.505
204.943
179.605
144.097
111.796
85.4609
64.8252
49.0863
37.2704
28.512
22.1985
17.5948
14.1967
11.4367
9.20779
7.53625
6.32668
5.43828
4.77106
4.26709
3.88622
3.59459
3.36025
3.15144
2.93262
2.66019
2.27241
1.68206
0.772226
54.413
55.4326
57.9811
62.2612
68.6235
77.7516
90.7428
109.239
135.598
173.029
208
249.026
253.669
212.59
161.205
121.61
89.5269
65.4415
48.0529
35.5026
22.2553
16.2262
13.9776
12.6104
10.6283
8.60596
7.02037
5.8439
4.93617
4.22088
3.66331
3.23275
2.90052
2.63743
2.41689
2.20924
1.9725
1.63913
1.0942
0.144023
50.1131
50.926
52.9848
56.5105
61.9104
69.9893
82.1435
100.741
129.756
174.137
249.389
333.595
355.472
247.303
164.554
117.503
79.2402
53.8421
37.4006
26.8313
19.8166
4.34801
3.79731
4.64501
4.24396
3.63537
3.22838
2.92871
2.65706
2.4131
2.20898
2.04376
1.9141
1.81121
1.7269
1.65029
1.55607
1.38704
1.00051
-0.00151468
45.0987
45.6199
46.9702
49.3352
53.0686
58.8788
68.0684
83.0655
108.626
163.008
256.023
448.831
610.155
234.916
163.636
109.61
62.9966
37.947
23.767
15.2195
13.6117
13.6692
12.3087
7.45195
4.3112
2.8828
2.14632
1.62077
1.21619
0.92498
0.724932
0.58829
0.498364
0.444106
0.420409
0.424771
0.455568
0.513704
0.612067
0.831307
39.6822
39.8459
40.3067
41.159
42.5777
44.8981
48.7123
55.0399
65.6731
105.112
181.154
413.674
1933.16
187.415
81.1262
29.0158
13.1914
5.93453
-2.69233
-8.71768
14.8875
14.4042
8.66271
5.25917
3.92948
3.27865
2.76201
2.32461
1.97879
1.7082
1.49044
1.31585
1.17902
1.08026
1.02136
1.00335
1.03341
1.13617
1.40899
34.2642
34.0433
33.5353
32.7204
31.5392
29.8397
27.2604
22.9395
14.6465
17.3586
1.65357
-155.486
-980.644
-1027.39
-307.233
-100.518
-46.3929
-26.3155
-17.0735
-10.5586
-3.41118
-7.13252
-5.51941
-4.19689
-3.41795
-2.56184
-1.74676
-1.11266
-0.635053
-0.254328
0.0618868
0.327846
0.554241
0.748172
0.917004
1.0642
1.18257
1.24653
1.1879
0.830973
29.2708
28.6948
27.2745
24.8965
21.3157
16.0131
8.03021
-4.4312
-24.8565
-47.5617
-119.144
-261.108
-468.631
-495.201
-314.474
-172.172
-98.8551
-60.352
-38.7435
-24.9291
-14.835
-8.18244
-4.40649
-1.70835
-0.0271077
1.02391
1.74438
2.23183
2.5368
2.71353
2.80592
2.84202
2.8388
2.80613
2.74782
2.66117
2.52669
2.29817
1.87968
1.07504
25.1303
24.2504
22.0879
18.4556
13.0078
5.06913
-6.50058
-23.5802
-49.3333
-89.2292
-145.217
-216.003
-280.086
-287.97
-231.807
-160.646
-106.93
-72.5215
-50.2051
-34.7023
-23.6698
-16.2769
-11.3934
-7.91903
-5.45286
-3.70211
-2.39888
-1.39809
-0.628973
-0.0369696
0.425154
0.790943
1.08054
1.30395
1.46248
1.54992
1.54416
1.40249
1.06335
0.475924
22.1719
21.0838
18.4043
13.9231
7.26729
-2.24761
-15.6593
-34.3857
-60.2128
-94.9598
-138.644
-186.299
-223.756
-230.768
-201.119
-153.674
-110.544
-79.0896
-57.0107
-40.9213
-28.9547
-20.1883
-13.7718
-9.08244
-5.66341
-3.17916
-1.3626
-0.0273353
0.947958
1.65109
2.15101
2.49877
2.72849
2.86014
2.89992
2.84861
2.68609
2.36923
1.83011
0.957497
20.6336
19.44
16.4975
11.596
4.35792
-5.86618
-20.0034
-39.1464
-64.3556
-96.0552
-132.785
-169.371
-196.221
-202.157
-182.994
-147.897
-111.441
-81.9197
-60.0006
-43.6587
-31.3101
-22.0843
-15.3229
-10.4299
-6.90316
-4.3559
-2.50452
-1.14687
-0.145364
0.594682
1.14161
1.54378
1.8329
2.02515
2.11698
2.11666
2.00174
1.73125
1.26024
0.559369
60.3182
61.4878
64.3638
69.0138
75.5003
83.9839
94.6137
107.334
121.667
136.382
149.171
156.446
154.563
142.6
123.362
102.048
82.3509
65.5536
51.7557
40.7053
32.0304
25.3046
20.1518
16.2545
13.2854
10.9652
9.13114
7.69747
6.59283
5.74279
5.08296
4.56602
4.15538
3.81644
3.51347
3.20833
2.85852
2.41175
1.7994
0.932631
59.1729
60.3129
63.1279
67.7119
74.1818
82.7938
93.856
107.558
123.736
141.45
158.301
169.304
167.422
151.755
127.65
102.996
81.5308
63.8512
49.7102
38.6648
30.1956
23.6787
18.73
15.1145
12.4162
10.2948
8.60572
7.2786
6.24178
5.42675
4.78084
4.26621
3.85159
3.50664
3.20058
2.89935
2.56281
2.13831
1.55913
0.756775
56.9145
57.985
60.6496
65.0472
71.3909
80.1109
91.8238
107.244
126.982
150.946
176.137
194.792
193.933
169.78
136.212
105.721
80.7894
61.2559
46.4122
35.3499
27.2965
21.3028
16.807
13.525
10.9107
8.79026
7.16814
5.96879
5.07269
4.39147
3.87273
3.47877
3.17688
2.9392
2.73846
2.54561
2.32267
2.01351
1.53072
0.742122
53.6115
54.5559
56.9337
60.9284
66.8582
75.355
87.4436
104.673
129.294
164.428
198.887
238.067
242.304
202.602
153.627
116.005
85.239
62.1671
45.5855
33.707
21.2843
16.09
13.8089
12.2209
10.0559
7.88405
6.16784
4.88364
3.8958
3.12757
2.5387
2.0941
1.76215
1.51468
1.32902
1.18248
1.04296
0.854203
0.512305
-0.15871
49.3961
50.1393
52.0449
55.3138
60.3185
67.8094
79.1027
96.4511
123.691
166.94
239.328
320.702
341.679
236.004
157.632
112.938
75.6492
50.969
35.0932
24.9574
18.5587
5.5728
5.25069
5.77692
4.8925
3.79987
3.00118
2.40768
1.92092
1.52457
1.2159
0.983678
0.818395
0.707538
0.645763
0.628431
0.646747
0.6653
0.567354
-0.0412933
44.4892
44.95
46.1769
48.3371
51.7558
57.099
65.6079
79.6186
103.783
156.929
248.098
437.372
595.233
222.569
159.794
106.932
60.7087
35.7989
21.8014
13.3709
12.0084
9.52259
8.31306
3.66696
0.470438
-1.0886
-1.88202
-2.38421
-2.71888
-2.91824
-3.01494
-3.04378
-3.01252
-2.93374
-2.80645
-2.62112
-2.35458
-1.96387
-1.35245
-0.223986
39.1883
39.3179
39.6959
40.4136
41.6358
43.6824
47.127
52.9961
63.1545
101.985
177.502
408.677
1918.79
193.779
81.6419
28.774
12.1087
4.57225
-3.89315
-9.46253
11.8382
10.8051
5.12721
1.94581
0.760086
0.192506
-0.251961
-0.615734
-0.887596
-1.08117
-1.21505
-1.29824
-1.32819
-1.29958
-1.19911
-1.00204
-0.669265
-0.126305
0.744862
33.8948
33.6578
33.113
32.2462
31.0055
29.2532
26.6695
22.4925
14.721
17.8459
3.89803
-147.357
-961.416
-1006.09
-296.228
-94.511
-43.6573
-25.5459
-17.3634
-11.334
-4.45222
-8.98695
-7.95042
-6.79083
-5.78149
-4.65418
-3.63167
-2.83366
-2.2213
-1.73365
-1.33225
-0.995105
-0.706297
-0.451696
-0.210799
0.0308424
0.285353
0.547253
0.765295
0.737086
29.0208
28.4412
27.0283
24.678
21.1638
16.0061
8.32123
-3.55133
-22.8534
-44.578
-112.529
-248.704
-449.522
-475.901
-300.714
-163.61
-93.9204
-57.7848
-37.6344
-24.6807
-15.1328
-9.52976
-5.98835
-3.3074
-1.56699
-0.455665
0.315544
0.851151
1.20358
1.42582
1.56415
1.6487
1.69887
1.72623
1.7424
1.75051
1.74129
1.67999
1.47657
0.918293
24.9755
24.108
21.9901
18.4465
13.1597
5.5058
-5.5723
-21.8186
-46.1874
-83.8276
-136.643
-203.652
-264.752
-272.511
-219.242
-151.881
-101.371
-69.2199
-48.3988
-33.9113
-23.6266
-16.8636
-12.0964
-8.64688
-6.24162
-4.538
-3.24229
-2.22152
-1.42016
-0.791879
-0.291846
0.112288
0.441868
0.706312
0.913871
1.0623
1.13616
1.09931
0.88952
0.428004
22.0865
21.0218
18.4102
14.0569
7.62208
-1.52929
-14.3562
-32.172
-56.6328
-89.4409
-130.642
-175.645
-211.177
-217.995
-190.071
-145.324
-104.789
-75.3388
-54.6813
-39.603
-28.37
-20.1207
-13.9755
-9.45644
-6.17598
-3.79195
-2.03299
-0.724247
0.243124
0.949829
1.4615
1.82744
2.08168
2.24442
2.32683
2.32835
2.23344
2.00545
1.57958
0.838477
20.5802
19.419
16.5565
11.7979
4.80922
-5.01858
-18.536
-36.7534
-60.6397
-90.5927
-125.241
-159.756
-185.151
-190.89
-172.94
-139.933
-105.678
-77.9995
-57.4531
-42.112
-30.4933
-21.7842
-15.3548
-10.6613
-7.25848
-4.79667
-3.00174
-1.67509
-0.685745
0.0547811
0.610506
1.02761
1.33683
1.55466
1.68708
1.73041
1.66881
1.4696
1.08927
0.48571
58.9888
60.0512
62.6739
66.9078
72.7917
80.4515
89.9986
101.356
114.066
127.011
138.111
144.173
142.059
130.866
113.154
93.6242
75.5849
60.1969
47.566
37.4584
29.5107
23.2871
18.4254
14.6859
11.8361
9.63555
7.91614
6.57936
5.55115
4.76101
4.14926
3.67241
3.29695
2.99314
2.73117
2.47958
2.20249
1.85518
1.38137
0.71708
57.8719
58.9035
61.4635
65.6265
71.4802
79.2356
89.1462
101.354
115.688
131.291
146.04
155.315
153.318
138.842
116.806
94.3254
74.7152
58.5476
45.6394
35.5788
27.8486
21.7185
16.9187
13.3998
10.8276
8.84392
7.27523
6.04484
5.08832
4.34235
3.75613
3.29378
2.92734
2.63074
2.37903
2.14532
1.89693
1.58968
1.16635
0.570629
55.6715
56.6333
59.0437
63.0177
68.7296
76.546
86.9971
100.699
118.18
139.355
161.557
178.059
176.731
154.612
124.216
96.5511
73.7895
55.9586
42.4787
32.5234
25.3943
19.4601
14.5983
11.2574
8.90572
7.1041
5.72576
4.69469
3.91791
3.32289
2.86669
2.51982
2.25838
2.06053
1.9092
1.78462
1.66032
1.49047
1.19312
0.61781
52.4592
53.2983
55.4312
59.0139
64.3152
71.8837
82.6187
97.8916
119.721
150.961
183.76
219.449
222.914
185.946
141.238
106.849
78.28
56.9289
41.7018
30.9014
19.1651
13.6714
10.6679
8.89885
7.10528
5.41989
4.09138
3.09009
2.31388
1.70376
1.22911
0.870188
0.605261
0.414671
0.292045
0.22896
0.213735
0.211683
0.133315
-0.248128
48.3677
49.0162
50.7015
53.5964
58.0212
64.6344
74.6062
89.9544
114.178
154.787
221.448
297.335
316.533
216.492
145.941
104.926
69.2855
45.9685
31.1715
21.7453
14.9161
-2.4707
-1.01135
1.31861
1.51058
1.04106
0.608552
0.22709
-0.139818
-0.469557
-0.7444
-0.950843
-1.09557
-1.18078
-1.19561
-1.12732
-0.956648
-0.678145
-0.365496
-0.432349
43.6145
43.9992
45.0487
46.9082
49.8591
54.4921
61.9179
74.2636
95.8508
145.982
232.853
414.922
565.612
199.543
152.645
103.764
56.9765
31.9885
18.2563
9.98749
2.31314
-2.78562
-0.521391
-1.01638
-2.21857
-2.95368
-3.37338
-3.71194
-4.0084
-4.2461
-4.41916
-4.54511
-4.60853
-4.61207
-4.53696
-4.34857
-3.98433
-3.32985
-2.18223
-0.218367
38.4928
38.5684
38.8276
39.3496
40.2769
41.8921
44.7153
49.7182
58.741
95.7549
169.521
401.659
1880.83
199.581
79.6846
24.3587
7.76704
0.167138
-8.84879
-16.6634
13.1894
10.911
4.30054
0.470377
-1.322
-2.36187
-3.1214
-3.69273
-4.10761
-4.4019
-4.59897
-4.7207
-4.77254
-4.7279
-4.55555
-4.19216
-3.52651
-2.3652
-0.414828
33.3812
33.1197
32.5239
31.5816
30.2452
28.3892
25.7401
21.6546
14.4413
17.8861
6.71713
-130.554
-902.163
-965.527
-274.49
-86.1306
-41.4125
-25.9647
-18.952
-13.3218
-3.98442
-6.77664
-6.4962
-6.11369
-5.55205
-4.79466
-4.06378
-3.47298
-3.01315
-2.64861
-2.35251
-2.09503
-1.8833
-1.6914
-1.48383
-1.23083
-0.893681
-0.432637
0.150816
0.631057
28.6813
28.1
26.7007
24.389
20.9634
15.998
8.71286
-2.34985
-20.0493
-40.0585
-102.143
-227.806
-415.841
-441.34
-276.493
-149.986
-86.8359
-54.4468
-36.4153
-24.7306
-15.9558
-11.1006
-6.90713
-3.81907
-2.14409
-1.26203
-0.697653
-0.315884
-0.0766708
0.0630624
0.144016
0.193099
0.222455
0.247552
0.28576
0.34905
0.443576
0.559523
0.631959
0.469741
24.777
23.9315
21.8781
18.4635
13.407
6.15569
-4.22681
-19.2814
-41.6259
-75.8425
-123.715
-184.61
-240.474
-247.905
-199.707
-138.808
-93.3719
-64.5198
-45.8103
-32.7774
-23.5761
-17.5953
-12.493
-8.76395
-6.39827
-4.83893
-3.66683
-2.73719
-2.00587
-1.43217
-0.973951
-0.600172
-0.292585
-0.0386201
0.174854
0.350731
0.482938
0.548383
0.493574
0.23543
21.9863
20.9607
18.4489
14.2826
8.16499
-0.466384
-12.4587
-28.9643
-51.4355
-81.3692
-118.807
-159.676
-192.079
-198.508
-173.382
-133.009
-96.4908
-69.9618
-51.3067
-37.6517
-27.4664
-19.9391
-14.0761
-9.66597
-6.49744
-4.23457
-2.58021
-1.35441
-0.4523
0.203505
0.676737
1.0156
1.25316
1.41064
1.50254
1.53128
1.48652
1.34103
1.04285
0.508625
20.5335
19.4162
16.6714
12.1285
5.49745
-3.76103
-16.3969
-33.2876
-55.268
-82.6587
-114.205
-145.576
-168.708
-174.087
-158.016
-128.312
-97.4185
-72.4073
-53.7913
-39.8498
-29.2597
-21.2768
-15.2826
-10.7952
-7.50024
-5.12349
-3.40236
-2.13466
-1.19042
-0.48465
0.044106
0.440994
0.736421
0.948686
1.0867
1.1491
1.12336
0.984816
0.699738
0.248166
57.3329
58.2647
60.5746
64.294
69.4332
76.072
84.2701
93.9151
104.567
115.233
124.135
128.589
126.112
115.934
100.268
83.092
67.1975
53.5964
42.4105
33.4504
26.4055
20.8947
16.5639
13.1712
10.5471
8.5161
6.93264
5.70257
4.75875
4.03169
3.46884
3.03208
2.69151
2.421
2.19466
1.98749
1.77173
1.51158
1.16049
0.648214
56.2521
57.152
59.3974
63.0398
68.1304
74.8201
83.2861
93.5976
105.548
118.361
130.285
137.168
134.842
122.005
102.835
83.2913
66.1316
51.9174
40.5582
31.7186
24.9738
19.6547
15.4317
12.1894
9.74001
7.83621
6.3288
5.14465
4.2369
3.5332
2.98434
2.557
2.22477
1.96282
1.75237
1.5723
1.39776
1.19597
0.920605
0.507139
54.1256
54.9558
57.0527
60.502
65.4278
72.1108
80.9579
92.4288
106.89
124.183
142.028
155.101
153.118
133.986
108.1
84.3604
64.603
49.0613
37.3348
28.8013
23.0977
18.1976
13.6199
10.2816
8.00615
6.31789
5.01647
4.02182
3.26057
2.68376
2.24481
1.91111
1.66331
1.48153
1.35498
1.27201
1.21993
1.17059
1.05814
0.700217
51.0285
51.7406
53.5714
56.6415
61.1551
67.5452
76.5241
89.1736
107.078
132.481
161.971
191.739
193.896
161.644
123.553
93.693
68.4387
49.716
36.4661
27.3382
18.9143
16.3714
11.2783
7.49815
4.98976
3.1693
1.83856
0.893601
0.218943
-0.271343
-0.635684
-0.900507
-1.08003
-1.19278
-1.23479
-1.19666
-1.06654
-0.839468
-0.548297
-0.388922
47.0936
47.6295
49.0423
51.469
55.1602
60.6423
68.8521
81.4106
101.142
136.951
193.149
258.238
274.118
186.137
128.659
91.6181
59.1243
38.5319
25.7816
18.1914
15.6556
7.70497
5.37385
3.67756
1.97263
0.533417
-0.556311
-1.39593
-2.02849
-2.50056
-2.85699
-3.10469
-3.26245
-3.34871
-3.34615
-3.21718
-2.91324
-2.35389
-1.48512
-0.632785
42.5344
42.8306
43.6602
45.1403
47.4928
51.1888
57.1187
67.0092
84.4053
128.48
205.818
370.65
509.442
167.632
150.187
92.5146
46.9787
24.098
12.1585
5.16379
-3.53586
-31.4111
-28.5429
-26.4915
-25.4111
-24.2489
-23.1078
-22.1436
-21.3649
-20.7
-20.0956
-19.5485
-19.0204
-18.4709
-17.8644
-17.1376
-16.165
-14.6869
-12.1166
-6.95342
37.638
37.6475
37.7604
38.0359
38.5798
39.6074
41.5295
45.1321
51.9535
84.5705
151.719
371.852
1814.57
261.932
67.1605
13.347
-2.43969
-8.90616
-13.9537
-18.5255
-2.92317
-5.37779
-9.78171
-12.0323
-12.9042
-13.311
-13.5674
-13.7287
-13.7902
-13.7618
-13.6782
-13.5085
-13.2599
-12.9116
-12.4008
-11.6097
-10.2929
-7.97159
-3.84475
32.7563
32.4647
31.807
30.7685
29.2991
27.2795
24.4676
20.321
13.466
16.4589
7.39885
-114.706
-825.309
-856.875
-238.224
-78.336
-42.2749
-29.6311
-23.4057
-17.9356
-11.9403
-21.3629
-17.5114
-13.6077
-11.3455
-9.80959
-8.6535
-7.81059
-7.20938
-6.77234
-6.44153
-6.16898
-5.9387
-5.71494
-5.45499
-5.10485
-4.58787
-3.78052
-2.53054
-0.819539
28.2728
27.6954
26.3134
24.0466
20.7211
15.9721
9.14175
-0.979782
-16.7346
-34.4429
-88.2701
-197.511
-362.453
-383.175
-239.691
-131.922
-78.5522
-50.9487
-35.3909
-25.4884
-19.553
-18.4466
-12.372
-7.40235
-4.87893
-3.59246
-2.76747
-2.20082
-1.83023
-1.59439
-1.43848
-1.32812
-1.24308
-1.15589
-1.04528
-0.886952
-0.651804
-0.312068
0.114915
0.41125
24.5501
23.7337
21.7619
18.505
13.7302
6.96492
-2.57001
-16.1523
-35.9369
-65.6702
-106.736
-158.666
-206.198
-212.991
-172.888
-121.823
-83.4149
-58.7329
-42.5592
-31.3144
-23.6579
-19.2142
-14.215
-10.1751
-7.56294
-5.82586
-4.51501
-3.48089
-2.67607
-2.05357
-1.56546
-1.17405
-0.858216
-0.593418
-0.363355
-0.155459
0.0367812
0.206722
0.31207
0.22878
21.8872
20.9097
18.5235
14.5887
8.86212
0.870596
-10.0909
-24.9675
-44.9285
-71.1503
-103.571
-138.679
-166.537
-172.298
-151.27
-117.195
-86.1025
-63.2403
-46.9868
-35.03
-26.1508
-19.6708
-14.4803
-10.3378
-7.23699
-4.97599
-3.30179
-2.04666
-1.11096
-0.420693
0.0862744
0.457811
0.727592
0.920452
1.0527
1.13163
1.15378
1.09931
0.919973
0.505618
20.5008
19.4402
16.8414
12.5647
6.37361
-2.18192
-13.723
-28.9625
-48.5506
-72.6772
-100.192
-127.37
-147.384
-152.192
-138.653
-113.493
-87.0541
-65.4099
-49.1356
-36.8655
-27.5202
-20.4735
-15.1348
-11.0085
-7.87471
-5.55847
-3.84972
-2.56975
-1.6008
-0.865718
-0.307699
0.116492
0.437534
0.675853
0.842658
0.940693
0.961861
0.885579
0.6775
0.28745
55.4571
56.2461
58.2072
61.3522
65.661
71.1619
77.8546
85.5827
93.9127
101.976
108.322
110.948
107.99
98.9743
85.7257
71.3247
57.9512
46.4247
36.8622
29.1176
22.9383
18.0535
14.2328
11.2677
8.96863
7.16895
5.75016
4.63848
3.78807
3.1255
2.60779
2.20329
1.88687
1.63857
1.43499
1.2543
1.07926
0.884689
0.650526
0.34082
54.4177
55.1745
57.0699
60.1311
64.3702
69.8696
76.7163
84.8855
94.1037
103.625
111.911
116.247
113.352
102.433
86.7503
70.774
56.5899
44.682
35.036
27.3768
21.3211
16.5854
12.9021
10.0897
7.9337
6.23421
4.87335
3.77512
2.97997
2.35028
1.84997
1.46043
1.15917
0.918311
0.733228
0.590207
0.46458
0.339973
0.197225
0.0750176
52.3759
53.065
54.8136
57.6768
61.7237
67.1348
74.1669
83.0769
93.9915
106.577
119.045
127.201
124.286
108.772
88.425
69.7395
53.9694
41.2709
31.467
23.9927
18.0885
13.8434
10.3572
7.70261
5.74151
4.22942
3.07645
2.19308
1.46844
0.93965
0.55321
0.268302
0.0660164
-0.0646659
-0.142252
-0.166941
-0.143702
-0.0753865
0.0191435
0.0991771
49.4098
49.9886
51.4841
53.9812
57.6108
62.668
69.6307
79.1917
92.2835
110.005
134.051
154.777
154.799
129.434
99.8489
76.1566
55.8429
40.6237
29.6757
21.856
11.2717
8.56422
5.65471
3.09084
1.15001
-0.407998
-1.64648
-2.53641
-3.16858
-3.59989
-3.89801
-4.09302
-4.20017
-4.23754
-4.19934
-4.06459
-3.81251
-3.39447
-2.73495
-1.66748
45.6576
46.0721
47.1834
49.0865
51.9495
56.1375
62.2839
71.457
85.4367
113.821
153.318
198.493
206.216
138.427
97.7309
69.1292
43.4694
27.1899
17.032
10.978
9.4789
-2.4132
-3.869
-5.03779
-6.41935
-7.43532
-8.23693
-8.95551
-9.37436
-9.56821
-9.65236
-9.66757
-9.59833
-9.45125
-9.24666
-8.91293
-8.37901
-7.5018
-6.05037
-3.71052
41.3232
41.5214
42.1082
43.1637
44.8365
47.4434
51.5786
58.3655
70.029
103.837
162.318
286.063
389.26
102.51
113.037
56.0489
18.9228
1.12883
-7.84048
-12.3571
-9.95921
-23.4885
-25.9754
-30.6721
-32.3848
-32.4957
-31.9715
-31.1418
-30.3333
-29.5582
-28.7656
-27.9393
-27.1241
-26.3057
-25.4082
-24.3659
-23.0319
-21.0578
-17.6303
-10.7416
36.6839
36.624
36.5761
36.5738
36.676
37.0092
37.8147
39.5461
43.0668
67.4982
118.481
299.494
1636.52
253.205
-19.7652
-61.6949
-69.2381
-69.9336
-68.0785
-63.4803
-36.788
-35.782
-37.683
-37.7492
-36.7479
-35.5486
-34.396
-33.3378
-32.3352
-31.3562
-30.4194
-29.4929
-28.5302
-27.5359
-26.4087
-24.9855
-22.8831
-19.2089
-11.6301
32.0778
31.7419
31.0155
29.8679
28.2415
26.0155
22.9566
18.5892
11.8266
13.1787
5.05011
-89.6371
-656.15
-652.207
-193.775
-81.5639
-54.1554
-42.6719
-36.2272
-30.4948
-27.2053
-30.2242
-26.3354
-22.3872
-19.9959
-18.2993
-17.0014
-16.0087
-15.2347
-14.6109
-14.0842
-13.621
-13.2087
-12.7683
-12.286
-11.7056
-10.9221
-9.74124
-7.79548
-4.32731
27.823
27.258
25.8968
23.6786
20.4609
15.941
9.5891
0.482534
-13.0206
-28.0743
-70.9998
-154.289
-278.102
-295.028
-190.223
-110.235
-69.0629
-46.7069
-33.6313
-25.346
-22.7088
-18.04
-14.6099
-11.6184
-9.73291
-8.48428
-7.53576
-6.78431
-6.18969
-5.71815
-5.3359
-5.01566
-4.74319
-4.48612
-4.22002
-3.91423
-3.52213
-2.97735
-2.1904
-1.05653
24.3162
23.5384
21.6549
18.5727
14.1079
7.88265
-0.714052
-12.6479
-29.4927
-53.9305
-86.6602
-126.69
-162.382
-168.515
-139.485
-101.129
-71.121
-51.0428
-37.4405
-27.7639
-21.0097
-17.3166
-13.9404
-11.0411
-8.85205
-7.22048
-5.94953
-4.93752
-4.1326
-3.49141
-2.97502
-2.55107
-2.19972
-1.89565
-1.62123
-1.36083
-1.10245
-0.837081
-0.566901
-0.304365
21.8026
20.8795
18.6362
14.9619
9.67269
2.39606
-7.41413
-20.4628
-37.572
-59.4874
-85.9341
-113.952
-136.01
-140.739
-124.917
-98.7295
-74.0457
-55.2896
-41.5911
-31.3292
-23.5996
-17.9757
-13.6697
-10.2706
-7.66314
-5.70381
-4.22286
-3.09163
-2.22434
-1.55964
-1.04894
-0.655368
-0.351808
-0.117448
0.0618486
0.193472
0.275893
0.297244
0.233473
0.0586849
20.4934
19.498
17.0652
13.0885
7.39122
-0.376925
-10.693
-24.0812
-40.9695
-61.3697
-84.2109
-106.428
-122.641
-126.658
-116.216
-96.3218
-75.0609
-57.2055
-43.4575
-32.918
-24.7958
-18.6364
-14.0097
-10.4802
-7.78613
-5.74931
-4.2109
-3.03898
-2.13926
-1.44623
-0.911642
-0.498069
-0.17851
0.0650007
0.243109
0.359375
0.406938
0.369274
0.227061
-0.0138275
53.489
54.1316
55.7364
58.2933
61.7549
66.101
71.2751
77.0824
83.1042
88.6014
92.4578
93.2784
89.8652
82.0584
71.267
59.6837
48.8819
39.4722
31.5565
25.0469
19.7754
15.5684
12.2849
9.79127
7.87736
6.36446
5.15934
4.21268
3.48275
2.91762
2.47909
2.13922
1.87487
1.66531
1.49186
1.3364
1.17846
0.993856
0.754025
0.425806
52.4946
53.1051
54.644
57.1115
60.4836
64.7772
69.993
76.0187
82.525
88.822
93.6862
95.2582
91.6536
82.6267
70.5131
58.2291
47.1782
37.7043
29.8511
23.4739
18.3232
14.2025
11.0327
8.73565
7.01277
5.65115
4.56482
3.70555
3.041
2.51689
2.1008
1.77178
1.51215
1.30477
1.138
0.999933
0.873177
0.737236
0.564089
0.321974
50.5449
51.089
52.4852
54.7518
57.9067
62.0331
67.2404
73.5883
80.9689
88.8921
96.0282
99.4679
95.1111
82.7133
67.786
54.3669
42.8717
33.2017
25.3755
19.1241
14.0493
10.0899
7.68714
6.01746
4.59156
3.41639
2.5341
1.89402
1.42427
1.08819
0.848788
0.679967
0.566921
0.497292
0.462346
0.460432
0.487594
0.531182
0.554111
0.443897
47.7217
48.1609
49.3188
51.2361
53.9714
57.6852
62.6228
69.0924
77.4039
87.7088
98.3471
105.857
99.7858
80.3376
62.0628
48.1632
36.4298
27.0683
19.8591
13.9365
7.83454
1.71021
1.94488
2.43114
1.87763
1.01711
0.262258
-0.328269
-0.782156
-1.12547
-1.38345
-1.56826
-1.68514
-1.74187
-1.7351
-1.65019
-1.47105
-1.17449
-0.754647
-0.279922
44.1626
44.4536
45.2605
46.6384
48.6646
51.5474
55.6136
61.3538
69.3955
88.7862
108.601
128.057
122.381
82.3019
58.6972
44.0745
28.3863
17.3961
10.2961
5.33238
0.220186
-13.7182
-11.0984
-8.21463
-6.95392
-6.30314
-5.8626
-5.55867
-5.32442
-5.13962
-4.99762
-4.87948
-4.76724
-4.6472
-4.48534
-4.23613
-3.83931
-3.20011
-2.23325
-1.04989
40.0672
40.1673
40.5096
41.1389
42.1264
43.635
45.9533
49.5627
55.2225
76.2144
101.939
144.805
164.729
27.4324
22.827
4.77548
-5.10316
-9.25511
-12.1441
-14.4619
-20.7884
-13.0921
-14.8536
-17.1624
-17.9414
-17.9749
-17.74
-17.384
-16.9852
-16.5571
-16.0974
-15.5998
-15.0995
-14.5975
-14.0366
-13.3587
-12.4562
-11.1021
-8.87686
-5.12184
35.698
35.5749
35.3658
35.0844
34.7429
34.3763
34.0416
33.8155
33.7452
47.4559
58.7053
128.354
167.619
-709.378
-132.524
-89.6272
-62.9757
-57.1457
-53.3895
-51.1997
-68.8535
-40.2431
-38.2228
-36.2182
-34.2967
-32.3948
-30.6896
-29.2136
-27.9268
-26.7761
-25.7231
-24.7512
-23.8434
-22.9433
-22.0165
-20.9965
-19.7646
-18.0357
-15.1867
-9.63483
31.3667
31.01
30.2178
28.9619
27.1823
24.7498
21.4236
16.7511
9.82653
8.57327
-12.3852
-79.2153
-302.673
-258.62
-110.143
-60.4434
-37.3116
-26.7925
-21.2746
-16.9617
-8.97447
5.9782
2.43202
-1.51234
-3.22672
-4.07016
-4.63222
-5.02253
-5.27596
-5.4281
-5.50691
-5.53743
-5.51733
-5.42472
-5.24578
-4.9578
-4.49388
-3.72801
-2.49635
-0.836533
27.3946
26.8269
25.4897
23.3272
20.2258
15.9407
10.05
1.8223
-10.1059
-28.5241
-51.5351
-104.891
-175.308
-188.727
-131.523
-83.0023
-54.652
-37.5159
-26.9155
-19.3752
-9.60857
-1.01256
-2.34073
-3.94577
-4.0321
-3.61316
-3.18694
-2.81038
-2.47596
-2.18823
-1.94709
-1.74378
-1.57176
-1.41871
-1.25425
-1.05675
-0.800726
-0.452113
-0.0184351
0.319781
24.1012
23.3581
21.5744
18.6783
14.5367
8.86612
1.22273
-9.05996
-22.9493
-41.6909
-65.8916
-93.4887
-117.018
-122.012
-104.606
-79.1995
-57.643
-42.1952
-31.1655
-22.7412
-15.6372
-10.9293
-8.37007
-6.51235
-4.81699
-3.41695
-2.36662
-1.58869
-1.00324
-0.560009
-0.223653
0.0342201
0.231913
0.38854
0.524106
0.64787
0.762083
0.854799
0.869905
0.629845
21.7469
20.8839
18.7892
15.3889
10.5554
4.01581
-4.61773
-15.8111
-30.0299
-47.5219
-67.7448
-88.5008
-104.334
-108.184
-97.8582
-79.6216
-61.4489
-46.8278
-35.672
-26.9945
-20.0953
-14.7859
-10.7501
-7.79048
-5.56697
-3.86734
-2.57309
-1.58681
-0.830365
-0.24827
0.198467
0.539383
0.796437
0.986525
1.12119
1.20509
1.23164
1.17724
0.987954
0.549997
20.5204
19.5943
17.3377
13.6779
8.49727
1.54174
-7.52302
-19.0293
-33.1793
-49.792
-67.8613
-85.0186
-97.3203
-100.544
-93.2372
-78.7354
-62.6269
-48.5399
-37.3044
-28.4502
-21.4358
-15.9485
-11.7575
-8.61142
-6.216
-4.35678
-2.91264
-1.79788
-0.939952
-0.280548
0.224291
0.607701
0.894639
1.10223
1.24021
1.31113
1.30503
1.19748
0.942118
0.459581
51.5629
52.0669
53.3326
55.3357
58.0031
61.2779
65.0618
69.1423
73.1364
76.4476
78.2694
77.7053
74.0961
67.5112
58.9643
49.9063
41.3942
33.877
27.4596
22.1164
17.7591
14.2809
11.5733
9.49899
7.87355
6.55921
5.49225
4.63764
3.9613
3.42612
3.00031
2.65914
2.38192
2.14979
1.94517
1.74991
1.54122
1.29159
0.967378
0.529621
50.614
51.0871
52.2875
54.1998
56.7629
59.9455
63.6829
67.8076
71.9786
75.6079
77.808
77.456
73.6157
66.3978
57.2956
48.0654
39.618
32.2165
25.9469
20.7848
16.6141
13.3233
10.8349
8.96766
7.49237
6.28449
5.29911
4.50237
3.85922
3.33776
2.9119
2.56218
2.27276
2.02853
1.8153
1.61917
1.42025
1.19105
0.893182
0.479588
48.7572
49.167
50.2288
51.9415
54.2724
57.2289
60.8096
64.9365
69.3666
73.5588
76.4841
76.508
71.8945
62.9959
52.8069
43.5617
35.4633
28.3434
22.3426
17.4699
13.5924
10.6922
8.82062
7.36781
6.0354
4.88726
3.98518
3.29897
2.77354
2.36781
2.05525
1.81535
1.63239
1.49332
1.38702
1.30427
1.23059
1.13879
0.973253
0.615191
46.0771
46.39
47.2304
48.6097
50.5302
53.0399
56.2105
60.0817
64.5772
69.3138
73.2035
73.8223
67.6766
55.7003
44.4612