/*--------------------------------*- C++ -*----------------------------------*\
| =========                 |                                                 |
| \\      /  F ield         | OpenFOAM: The Open Source CFD Toolbox           |
|  \\    /   O peration     | Version:  2306                                  |
|   \\  /    A nd           | Website:  www.openfoam.com                      |
|    \\/     M anipulation  |                                                 |
\*---------------------------------------------------------------------------*/
FoamFile
{
    version     2.0;
    format      ascii;
    arch        "LSB;label=32;scalar=64";
    class       surfaceScalarField;
    location    "1.55";
    object      phi;
}
// * * * * * * * * * * * * * * * * * * * * * * * * * * * * * * * * * * * * * //

dimensions      [0 3 -1 0 0 0 0];

oriented        oriented;

internalField   nonuniform List<scalar> 
338621
(
24.9949
0.00256196
0.00119298
24.9871
0.00523857
0.00253637
24.9747
0.00818058
0.0041053
24.9573
0.0112548
0.00602595
24.934
0.0145735
0.00859628
24.9012
0.0205499
0.0119698
24.8547
0.02997
0.0162543
24.7921
0.0404535
0.0217536
24.7308
0.0320956
0.0286986
24.6885
0.00471006
0.0370045
24.6612
-0.0198282
0.0465121
24.5881
0.0156077
0.0567654
24.617
-0.0971086
0.0674645
24.7471
-0.208393
0.0776291
24.7878
-0.127979
0.0866314
24.8186
-0.12539
0.094074
24.8457
-0.127449
0.099919
24.8676
-0.126618
0.104544
24.8861
-0.126605
0.107976
24.9121
-0.136628
0.110505
24.9418
-0.141822
0.112111
24.9647
-0.13619
0.113224
24.9827
-0.131952
0.113999
24.9977
-0.129399
0.114391
25.0106
-0.127559
0.11464
25.0216
-0.12585
0.114843
25.0313
-0.124637
0.114995
25.0395
-0.123403
0.115138
25.0465
-0.122337
0.115399
25.0524
-0.121724
0.115763
25.0576
-0.121332
0.116207
25.0621
-0.121177
0.116687
25.066
-0.121182
0.117282
25.0694
-0.121331
0.117933
25.0724
-0.12162
0.118554
25.0756
-0.122326
0.119134
25.0789
-0.12292
0.119588
25.0826
-0.123563
0.119957
25.0867
-0.12428
0.120164
-0.125315
0.119919
24.9949
0.00509394
0.00117105
24.987
0.0105952
0.00245836
24.9742
0.0168624
0.00400986
24.9567
0.0227326
0.00591167
24.9333
0.0293341
0.00845695
24.9038
0.0381416
0.0117221
24.8683
0.0491574
0.0160549
24.8229
0.0638351
0.0216431
24.7589
0.0668622
0.0287672
24.6851
0.0405567
0.0374786
24.6433
-0.0263217
0.0477909
24.631
-0.0314598
0.058808
24.67
-0.207723
0.0710745
24.7536
-0.374925
0.0824414
24.8326
-0.299582
0.0921043
24.8991
-0.292155
0.0998552
24.9495
-0.283926
0.105854
24.9901
-0.277808
0.110477
25.034
-0.284472
0.113918
25.0673
-0.286338
0.116302
25.0875
-0.279941
0.117935
25.1022
-0.269847
0.118993
25.1125
-0.262093
0.11978
25.121
-0.258071
0.120212
25.1277
-0.254676
0.120456
25.1331
-0.251865
0.120586
25.1369
-0.249192
0.120739
25.1401
-0.247503
0.120924
25.1428
-0.246266
0.121215
25.1447
-0.245194
0.121621
25.146
-0.244778
0.12213
25.1466
-0.244508
0.122723
25.1471
-0.245107
0.123396
25.1475
-0.245754
0.124098
25.1477
-0.246677
0.124777
25.1481
-0.248094
0.125436
25.1487
-0.249465
0.125939
25.1497
-0.250987
0.12636
25.1517
-0.252835
0.126569
-0.254077
0.126374
24.9952
0.00726415
0.00111817
24.9874
0.0160007
0.00234781
24.9753
0.0250805
0.00379743
24.9572
0.0350458
0.00568753
24.9328
0.0454794
0.00814649
24.9016
0.0577749
0.0113679
24.8618
0.0729524
0.0157454
24.813
0.0909281
0.0214676
24.7446
0.105942
0.0290125
24.6473
0.0988101
0.0386795
24.5719
0.0054195
0.0505369
-0.00607386
0.00487073
-0.00602567
24.6699
-0.0386596
0.0645126
-0.0583425
-0.0387295
-0.0585555
24.5627
-0.0108085
0.07778
-0.094934
0.0210179
-0.0939383
24.7348
-0.181529
0.0906524
-0.123078
-0.211851
-0.121454
24.8264
-0.127942
0.10062
-0.120469
-0.125791
-0.117913
24.8849
-0.116997
0.108302
-0.115122
-0.114238
-0.112752
24.9366
-0.113451
0.114221
-0.113876
-0.111304
-0.111211
25.0005
-0.116574
0.11878
-0.115783
-0.114401
-0.113716
25.0423
-0.113672
0.122148
-0.112492
-0.11161
-0.110542
25.0674
-0.110431
0.124369
-0.109524
-0.108359
-0.10742
25.0857
-0.424085
0.125894
25.1002
-0.411169
0.126818
25.1097
-0.399026
0.127445
25.1173
-0.393481
0.127833
25.1236
-0.389025
0.128048
25.1284
-0.384784
0.128112
25.1317
-0.380673
0.128124
25.1344
-0.378322
0.128187
25.1357
-0.375926
0.128373
25.1367
-0.37498
0.128725
25.1369
-0.374207
0.129246
25.1368
-0.374325
0.129919
25.1361
-0.375035
0.130657
25.1353
-0.376479
0.131549
25.1341
-0.377832
0.132364
25.1328
-0.380027
0.133166
25.1321
-0.382498
0.133787
25.1318
-0.384962
0.13428
25.1318
-0.387442
0.134524
-0.389688
0.134379
24.9955
0.00967267
0.00103696
24.9887
0.0206201
0.00217918
24.9768
0.0333735
0.00350282
24.9599
0.0465903
0.00529929
24.9353
0.062356
0.00759993
24.901
0.0812862
0.0107038
24.8556
0.103174
0.0149658
24.7978
0.127829
0.020714
24.7316
0.143354
0.0285734
6.14201
0.036948
0.0391829
0.0540369
0.0376271
0.0533432
6.16408
6.14106
6.16191
6.12454
0.0171467
0.00573426
-6.11162
6.09964
-0.0342761
0.00758021
-6.10371
6.12531
-0.04191
0.00949927
-6.11762
6.14453
-0.219924
0.011483
-6.16321
6.17734
-0.15505
0.0129647
-6.19043
6.20083
-0.141372
0.0139659
-6.21181
6.22572
-0.142158
0.0148011
-6.23732
6.24415
-0.138887
0.0154839
-6.24969
6.25465
-0.13461
0.0159897
-6.25893
6.26281
-0.130691
0.016379
25.0939
-0.144972
0.135911
-0.146115
-0.14297
-0.144676
-6.26636
-6.2708
-6.26686
-6.27105
25.1014
-0.555932
0.137226
25.1058
-0.540565
0.137142
25.1103
-0.534575
0.136682
25.1126
-0.527645
0.136282
25.1132
-0.521288
0.135944
25.1132
-0.516425
0.135736
25.1117
-0.512583
0.135742
25.109
-0.509228
0.13601
25.1051
-0.507651
0.136549
25.1004
-0.506824
0.137325
25.0947
-0.50688
0.138283
25.088
-0.507633
0.139305
25.0808
-0.509713
0.14046
25.0732
-0.511722
0.141457
25.0652
-0.51434
0.14235
25.0571
-0.517412
0.142948
25.0493
-0.520374
0.143231
25.0429
-0.524191
0.143171
-0.526703
0.142629
24.9972
0.0103534
0.000926582
24.9912
0.0246389
0.00194654
24.9814
0.0400323
0.00311954
24.9659
0.0572944
0.00472287
24.943
0.078372
0.00677496
24.9097
0.104979
0.00955735
24.8599
0.13945
0.0133785
24.7859
0.182921
0.0187209
6.1715
0.232097
0.0260877
6.16423
6.17109
6.16418
6.1555
0.0490208
0.00392134
6.13033
0.00554685
-6.15809
0.0199517
0.0118202
0.0115491
0.0202227
-0.0413318
-6.07778
6.04387
0.00758936
-0.00238075
0.00403879
0.00351983
-0.00207206
0.0232274
-6.04364
6.06213
0.00993391
0.0291039
-0.0402104
-0.0404919
-0.0191167
0.0423258
-6.11463
6.13996
0.0126082
-0.0517874
-0.066573
-0.104505
-0.0522527
0.237213
-6.1724
6.18428
0.0140628
-0.0501161
-0.0542305
-0.0534102
-0.050693
0.182522
-6.19564
6.20857
0.014901
-0.0502005
-0.0497104
-0.0493667
-0.0505065
0.171961
-6.22152
6.23268
0.0156391
-0.048478
-0.0485408
-0.0482795
-0.0487198
0.167238
-6.24169
6.24842
0.016237
-0.0461456
-0.0460476
-0.0458653
-0.0463122
0.161431
-6.2544
6.25872
0.0167374
-0.0440501
-0.0441624
-0.0440555
-0.0441572
0.155384
-6.26268
6.26477
0.0172522
-0.0422716
-0.042573
-0.0425078
-0.0423403
0.150352
-6.26786
6.26978
-0.165119
0.018231
25.0373
-0.666769
0.141479
-6.26987
-6.26257
-6.27074
-6.2647
25.0143
-0.657696
0.140051
24.9903
-0.647547
0.137031
24.9664
-0.637318
0.133605
24.9436
-0.628726
0.130216
24.9213
-0.621345
0.127187
24.8991
-0.615117
0.124728
24.8774
-0.610449
0.122956
24.8552
-0.607278
0.121866
24.8328
-0.605833
0.121382
24.8104
-0.605896
0.121359
24.7883
-0.607059
0.121588
24.7659
-0.60929
0.121991
24.7442
-0.61228
0.122275
24.7231
-0.615572
0.122326
24.7029
-0.619237
0.12198
24.6845
-0.623088
0.121125
24.6681
-0.62756
0.119732
-0.633407
0.11775
24.9999
0.00900038
0.000787547
24.9965
0.0263311
0.00164777
24.9889
0.0449305
0.00264524
24.9771
0.0651125
0.00392667
24.9595
0.0903255
0.00562386
24.9324
0.124128
0.00786575
24.8893
0.171596
0.0108807
24.817
0.240066
0.0151164
6.17084
0.345935
0.0208518
6.17037
6.17084
6.1702
-0.0649641
6.14526
0.0874055
0.00313742
-0.0195523
-1.52765
1.52252
0.0240922
0.000593384
-0.0192018
-1.5044
1.49233
0.030526
0.000747334
-1.46905
0.0523689
1.47904
-0.06349
0.0011417
-1.5306
0.0844779
1.53924
-0.0945495
0.00143739
-1.53738
0.0613701
-0.0658649
0.00239393
1.53948
-1.54861
0.0592518
-0.0644787
0.00280742
1.55103
0.056625
-1.55623
1.55748
-0.0609789
0.00310225
0.0526283
-1.55981
1.56017
-0.0561405
0.00314821
0.0499569
-1.56038
1.56036
-0.0529164
0.00298223
0.0476613
-1.55953
1.55911
-0.0499796
0.00273912
-1.5523
0.18201
6.14874
-0.178327
0.0211987
-1.5353
-1.55213
-1.53389
23.8105
-0.761693
0.0702727
-6.09088
-5.79728
-6.1026
-5.79512
23.828
-0.742694
0.0675238
23.8442
-0.728391
0.0646575
23.8604
-0.715063
0.0615591
23.876
-0.703135
0.0588184
23.8907
-0.692693
0.0566033
23.9047
-0.683988
0.0548504
23.918
-0.677172
0.0534416
23.9308
-0.672319
0.0522633
23.9431
-0.669301
0.0512174
23.9548
-0.667853
0.0502167
23.9664
-0.667779
0.0491621
23.9776
-0.668602
0.0480512
23.9885
-0.669958
0.0467661
23.9994
-0.671745
0.0452533
24.0103
-0.673505
0.0434408
24.0211
-0.675136
0.0412295
24.0316
-0.676524
0.038504
-0.677162
0.0352167
25.003
0.00508116
0.000645085
25.0036
0.02442
0.00132067
25.0008
0.0456661
0.00209699
24.9951
0.0677589
0.00301435
24.9863
0.0949052
0.00419505
24.9727
0.131981
0.00573223
24.9529
0.183759
0.00764675
24.9215
0.261372
0.0101091
6.21304
0.386919
0.0130451
6.22104
6.21271
6.22065
-0.105783
6.19752
0.119412
0.00188459
-0.0392061
-1.54194
1.53576
0.0450562
0.000324077
-0.0817295
-1.50623
1.4877
0.100006
0.000252304
0.00444394
-0.0747391
0.0749322
-0.00465727
2.01983e-05
-0.021413
0.000449674
0.020924
2.75067e-06
3.66458e-05
-0.231616
0.0163534
-0.0273374
-0.00200401
0.244604
-1.23406
0.0740345
-0.0884567
-0.00725836
1.25574
0.0694919
-1.29909
1.30742
-0.072572
-0.00524437
0.0661588
-1.3307
1.33793
-0.0699948
-0.00339587
0.0599829
-1.35524
1.36046
-0.0629676
-0.00223024
0.054813
-1.37339
1.37842
-0.0583843
-0.00146592
-1.41055
0.210824
5.85421
-0.224335
-0.0180074
-1.50135
-1.41193
-1.49886
24.1192
-0.682908
-0.116489
-5.89865
-6.17451
-5.83664
-6.17173
24.1456
-0.655569
-0.113519
24.167
-0.640722
-0.108996
24.1858
-0.629028
-0.104902
24.2031
-0.618874
-0.101507
24.2199
-0.610747
-0.0987903
24.2374
-0.604682
-0.096819
24.2561
-0.600366
-0.0954521
24.276
-0.597638
-0.0945965
24.297
-0.596209
-0.0940955
24.3187
-0.595787
-0.0938304
24.3408
-0.596183
-0.0936206
24.3627
-0.597048
-0.0934749
24.3841
-0.598117
-0.0932657
24.4046
-0.599111
-0.0930692
24.4241
-0.600056
-0.0929607
24.4425
-0.600494
-0.0930331
24.4595
-0.600058
-0.0934918
-0.59779
-0.0946322
25.0048
3.09263e-05
0.000483488
25.0101
0.0181283
0.000974448
25.0151
0.0391867
0.00149196
25.0191
0.0617014
0.00206894
25.021
0.09035
0.00268674
25.026
0.12364
0.00340844
25.0379
0.167856
0.00409013
25.0633
0.231403
0.00454486
6.274
0.332003
0.00442502
6.28179
6.27415
6.28395
-0.111592
6.28158
0.103535
0.000481368
-0.0445699
-1.57777
1.57943
0.0428833
2.98362e-05
-0.0841159
-1.59782
1.61278
-0.000201981
0.0693577
-0.0259142
-1.71296
1.75201
-0.00152872
0.0565954
-0.0210694
-0.0260166
-0.0211235
0.0998963
-1.71245
1.68293
-0.00140428
-0.0689742
0.102087
-1.60948
-0.00199055
1.59906
-0.0896789
0.0783018
-1.58496
-0.00220216
1.58213
-0.073273
0.0575615
-1.57762
1.57669
-0.0543825
-0.00224501
0.0585014
-1.57484
1.57298
-0.0544251
-0.00222013
0.0528459
-1.5724
1.57169
-0.0499553
-0.00218205
0.0491065
-1.5706
1.57007
-0.0464176
-0.00215921
-1.56774
0.183658
6.26511
-0.161829
-0.0171364
-1.56724
-1.56748
-1.56735
25.0716
-0.547972
-0.12931
-6.26875
-6.26836
-6.271
-6.26911
25.0728
-0.527426
-0.129409
25.0708
-0.510471
-0.128167
25.0681
-0.499793
-0.126541
25.0658
-0.491826
-0.124845
25.0642
-0.485912
-0.123147
25.0628
-0.48162
-0.121665
25.0613
-0.478442
-0.120441
25.0601
-0.476893
-0.11958
25.0589
-0.47593
-0.119098
25.0576
-0.47543
-0.119031
25.0564
-0.475836
-0.119187
25.0553
-0.47626
-0.119685
25.054
-0.476454
-0.120336
25.0532
-0.477094
-0.121206
25.0527
-0.477264
-0.122267
25.0526
-0.476943
-0.123517
25.0534
-0.475766
-0.125018
-0.473883
-0.126717
25.0058
-0.00505918
0.000277572
25.0143
0.00898117
0.000620305
25.0274
0.0252149
0.000905862
25.0388
0.0492105
0.0011383
25.0541
0.0737763
0.0012741
25.0775
0.0991186
0.00121453
25.1152
0.129505
0.000794912
25.178
0.169142
-0.000442564
6.32027
0.230964
-0.00299338
6.31845
6.32454
6.31895
-0.0888581
6.33625
0.0735651
-0.000679359
-0.0332902
6.41255
0.0879819
-0.00160441
-0.034467
-0.0333708
-0.033966
-6.36383
-0.0335033
6.51609
0.0761456
-0.00342277
-0.0262678
-0.0332887
-0.0261296
-6.46962
-0.00747309
-6.54673
6.51314
-0.00513489
-0.00622701
0.0149098
-0.00771765
0.0452059
0.0451766
-6.53487
6.51325
-0.122377
-0.00921286
0.0389447
0.0358508
0.033218
0.0546802
-6.44905
6.41182
-0.176211
-0.0113792
0.0551255
0.057054
0.0579569
0.0560916
-6.37225
6.34048
-0.17472
-0.0127972
0.0548537
0.0549581
0.0533979
0.0465537
-6.32259
6.3115
-0.157328
-0.0139058
0.0456719
0.0453277
0.0447692
0.0447587
-6.30281
6.29682
-0.157056
-0.0147074
0.0445574
0.0442954
0.0441225
0.0418728
-6.29223
6.28668
-0.144608
-0.0152101
0.0413798
0.0413613
0.0407373
0.0389704
-6.28227
6.27671
-0.13262
-0.0155324
0.0384942
0.0384339
0.0378105
0.144253
-6.27508
6.27311
-0.126382
-0.0159053
25.0718
-0.408778
-0.129557
-6.27055
-6.27053
-6.27071
-6.26972
25.0644
-0.391145
-0.12887
25.061
-0.37936
-0.127731
25.0589
-0.371014
-0.126606
25.0576
-0.365026
-0.125552
25.0567
-0.360461
-0.124586
25.0562
-0.357295
-0.123764
25.056
-0.355107
-0.12312
25.0555
-0.353755
-0.122663
25.055
-0.353049
-0.122381
25.0544
-0.352598
-0.122283
25.0539
-0.35298
-0.122282
25.053
-0.353024
-0.12235
25.0527
-0.353693
-0.122549
25.0525
-0.353957
-0.122854
25.0523
-0.35384
-0.123255
25.053
-0.35389
-0.123804
25.0552
-0.35338
-0.124557
-0.352721
-0.125543
25.0064
-0.0102427
0.000200575
25.0164
-0.00134579
0.000363312
25.0254
0.0157902
0.000437814
25.0421
0.0321869
0.000405497
25.0688
0.047032
0.000123508
25.1023
0.0663328
-0.000524989
25.1496
0.0840982
-0.00178172
25.2158
0.107324
-0.0041135
25.3244
0.130757
-0.00819091
25.429
0.144121
-0.0149134
-0.0613781
-0.0569552
-0.0584437
-0.056717
25.5761
0.131526
-0.0251829
-0.0608316
-0.0642766
-0.0612902
-0.0667785
25.7097
0.0542185
-0.0397734
-0.0422524
-0.0285518
-0.0451899
-0.0317916
25.5883
-0.156412
-0.0572507
0.0208397
0.1236
0.0197606
0.171139
25.4973
-0.237635
-0.075867
0.0828496
0.116416
0.0984541
0.107057
25.4302
-0.248883
-0.0914701
0.0825478
0.148074
0.0309336
0.146163
25.3454
-0.354166
-0.103356
0.135267
0.138473
0.133297
0.135492
25.2616
-0.325215
-0.111438
0.129578
0.133454
0.127035
0.130558
25.1952
-0.336011
-0.11679
0.133017
0.130108
0.12968
0.12631
25.1519
-0.314936
-0.120123
0.123081
0.119933
0.119628
0.115645
25.1283
-0.295297
-0.122093
0.112364
0.112077
0.107553
0.108994
25.1093
-0.279811
-0.12317
0.107475
0.106698
0.104588
0.103108
25.0928
-0.268656
-0.123581
25.0831
-0.258145
-0.123361
25.0771
-0.2504
-0.122951
25.0729
-0.244232
-0.122543
25.0696
-0.239699
-0.12204
25.0674
-0.236746
-0.121563
25.0652
-0.2339
-0.121155
25.0634
-0.232507
-0.120857
25.0616
-0.231199
-0.1207
25.0601
-0.230848
-0.120689
25.0589
-0.230604
-0.120831
25.0574
-0.230322
-0.121121
25.0564
-0.230656
-0.121457
25.0552
-0.230528
-0.121967
25.0544
-0.230605
-0.122543
25.0546
-0.230766
-0.123209
25.0554
-0.230709
-0.123975
25.0564
-0.229598
-0.124863
-0.228629
-0.125863
25.0067
-0.0152325
0.00011105
25.01
-0.0047771
0.000178766
25.0179
0.00784001
0.000109292
25.0377
0.0126257
-8.86866e-05
25.0633
0.0221634
-0.000623336
25.0928
0.0387224
-0.00165764
25.1407
0.0398448
-0.00341017
25.2017
0.0528353
-0.0062786
25.2806
0.0631822
-0.0109096
25.3759
0.0671245
-0.017879
25.4822
0.0535227
-0.0277656
25.5619
0.0160334
-0.0410289
25.5396
-0.0769073
-0.0566416
25.5259
-0.150757
-0.072644
25.404
-0.0397258
-0.0867474
25.3221
-0.173818
-0.0981042
25.2725
-0.169129
-0.106123
25.2112
-0.162894
-0.111757
25.1666
-0.154909
-0.115335
25.1351
-0.146219
-0.117516
25.1122
-0.138201
-0.118733
25.0947
-0.131948
-0.119168
25.0823
-0.126668
-0.119173
25.0735
-0.122737
-0.118859
25.0673
-0.119607
-0.118434
25.0629
-0.117438
-0.117858
25.0591
-0.115605
-0.117337
25.0566
-0.11448
-0.11691
25.0546
-0.113969
-0.116538
25.053
-0.113251
-0.116313
25.0516
-0.113269
-0.116213
25.0502
-0.112967
-0.116241
25.0495
-0.113268
-0.11634
25.0486
-0.113187
-0.116541
25.0484
-0.113514
-0.116835
25.0483
-0.113354
-0.117177
25.0487
-0.113629
-0.117569
25.0496
-0.113568
-0.118029
25.0518
-0.113209
-0.118589
-0.113705
-0.11929
24.987
8.39324e-05
24.9822
0.000136816
24.9901
-2.25079e-06
25.0031
-0.000219656
25.0263
-0.000893287
25.0673
-0.00203049
25.1113
-0.00393109
25.1716
-0.00700051
25.247
-0.0117974
25.3335
-0.0187057
25.4158
-0.028153
25.4729
-0.0403593
25.4511
-0.0544009
25.3699
-0.0688287
25.4128
-0.0819529
25.3326
-0.0931104
25.265
-0.101197
25.209
-0.106744
25.1646
-0.110366
25.131
-0.112587
25.1067
-0.113824
25.089
-0.114305
25.0767
-0.114292
25.0678
-0.113925
25.0617
-0.113489
25.0572
-0.112969
25.0541
-0.112503
25.0518
-0.112192
25.0498
-0.111893
25.0483
-0.111774
25.0468
-0.111816
25.0458
-0.111942
25.0447
-0.112154
25.044
-0.112479
25.0434
-0.112935
25.0435
-0.113423
25.0438
-0.113939
25.0447
-0.114502
25.0466
-0.11514
-0.115895
24.9952
0.00188301
0.00234034
24.9881
0.00468225
0.00488871
24.9768
0.00725312
0.00791569
24.9604
0.0103505
0.0117009
24.9388
0.0131134
0.0165748
24.9093
0.0177188
0.022966
24.8676
0.0258222
0.0312856
24.8106
0.0355641
0.0419656
24.7557
0.0268402
0.0553367
24.7204
-0.00116393
0.0717389
24.6966
-0.0222432
0.0905272
24.6354
0.00472608
0.111146
24.6645
-0.0960426
0.132302
24.7818
-0.194488
0.152657
24.8134
-0.117309
0.170443
24.8362
-0.115229
0.184924
24.8582
-0.119471
0.196272
24.8765
-0.119625
0.205072
24.8929
-0.120461
0.211682
24.9201
-0.133432
0.216483
24.9476
-0.135245
0.219719
24.9693
-0.130385
0.221898
24.9866
-0.126717
0.22333
25.0012
-0.124442
0.224259
25.0134
-0.122383
0.224875
25.0239
-0.121002
0.225309
25.0328
-0.119522
0.225663
25.0401
-0.118227
0.226008
25.0465
-0.117362
0.226433
25.0519
-0.116678
0.226988
25.0564
-0.115922
0.227668
25.06
-0.115349
0.228474
25.0633
-0.115466
0.229361
25.0667
-0.115745
0.230373
25.0695
-0.11568
0.23136
25.0726
-0.116312
0.232365
25.0759
-0.116803
0.233153
25.0794
-0.11746
0.233831
25.0839
-0.118433
0.234136
-0.119285
0.233492
24.9953
0.00379486
0.00228636
24.9882
0.00936128
0.00478116
24.9764
0.0150832
0.00775506
24.9601
0.0207665
0.0114945
24.938
0.0268002
0.0163316
24.9104
0.0337082
0.0227186
24.8775
0.0428376
0.0311018
24.8354
0.0562894
0.0420257
24.7733
0.0604109
0.0560071
24.6987
0.0359834
0.0734694
24.6571
-0.0284578
0.0941217
24.597
0.00475697
0.117197
24.633
-0.20354
0.140903
24.7649
-0.408944
0.163454
24.8443
-0.288504
0.182451
24.9105
-0.280173
0.197553
24.9592
-0.272373
0.209318
24.9984
-0.267055
0.218253
25.0431
-0.276383
0.224904
25.0753
-0.278932
0.229555
25.0945
-0.269141
0.232638
25.1084
-0.259947
0.234652
25.118
-0.252586
0.236009
25.1256
-0.248651
0.236918
25.1318
-0.245702
0.23754
25.1363
-0.242868
0.237999
25.1394
-0.240381
0.238424
25.1423
-0.239034
0.238901
25.1442
-0.237529
0.239489
25.1453
-0.236329
0.240209
25.1461
-0.235691
0.241061
25.1468
-0.235375
0.24203
25.1468
-0.235139
0.243129
25.1466
-0.23571
0.244261
25.1469
-0.236599
0.245395
25.1468
-0.237287
0.246461
25.1473
-0.238762
0.247374
25.1487
-0.240481
0.248064
25.1502
-0.24186
0.248434
-0.243725
0.247819
24.9954
0.00570261
0.002181
24.9885
0.0139321
0.00456838
24.9769
0.0228448
0.00742816
24.9601
0.0319343
0.0110476
24.9371
0.041806
0.0157758
24.9071
0.0524179
0.0220983
24.8693
0.0651553
0.0305644
24.8232
0.0811465
0.0418793
24.7582
0.0966169
0.0568605
24.6642
0.0914681
0.0762363
24.5885
0.00422223
0.100211
-0.00611744
0.00384473
-0.00548261
24.7245
-0.0392603
0.127718
-0.0593913
-0.0387599
-0.0580773
24.5839
0.0210662
0.15588
-0.0945679
0.022974
-0.0914235
24.7457
-0.213618
0.182217
-0.122064
-0.210111
-0.117367
24.8338
-0.12633
0.202265
-0.118388
-0.121607
-0.112812
24.8906
-0.115043
0.217439
-0.113666
-0.109957
-0.10798
24.942
-0.112514
0.229243
-0.112395
-0.107128
-0.106842
25.0059
-0.115569
0.238179
-0.114928
-0.110216
-0.109466
25.0476
-0.11299
0.244649
-0.112039
-0.107859
-0.107453
25.0735
-0.110246
0.248865
-0.108861
-0.105869
-0.104116
25.0921
-0.412908
0.251141
25.1052
-0.398637
0.252452
25.1142
-0.387357
0.25331
25.121
-0.382182
0.25458
25.1263
-0.378371
0.255359
25.1303
-0.374908
0.256151
25.1335
-0.371797
0.256341
25.1354
-0.369511
0.256807
25.1365
-0.367639
0.257369
25.1378
-0.366904
0.258081
25.1377
-0.36529
0.258954
25.1373
-0.365109
0.259986
25.1372
-0.365273
0.260907
25.1362
-0.36551
0.26241
25.1348
-0.366555
0.263666
25.1338
-0.367954
0.264858
25.1328
-0.369906
0.265879
25.1322
-0.372173
0.266625
25.1325
-0.37469
0.267026
-0.377076
0.266444
24.9964
0.00721882
0.00201974
24.9899
0.0183459
0.00423556
24.9786
0.0305765
0.00689853
24.962
0.0432475
0.0102893
24.9388
0.0574693
0.0147666
24.9058
0.0749112
0.0208344
24.8612
0.0949785
0.0291728
24.8036
0.118215
0.0406476
24.7359
0.135825
0.0564914
6.14326
0.0367165
0.0782218
0.0513889
0.0364197
0.0507595
6.16309
6.14352
6.16263
-0.0113735
6.12627
0.0152946
0.0172386
-0.0151528
-6.11463
6.1031
-0.0355495
0.0229342
-0.019101
-6.10746
6.10022
0.0184667
0.0289351
-0.0230582
-6.11581
6.14773
-0.257393
0.0349059
-0.0260069
-6.16576
6.17934
-0.153239
0.0393179
-0.0280688
-6.1921
6.20245
-0.139715
0.0423723
-0.0297045
-6.21289
6.22681
-0.141555
0.0448406
-0.0310137
-6.23918
6.24611
-0.138269
0.046831
-0.0319995
-6.2517
6.25675
-0.134276
0.048285
-0.0326943
-6.26041
6.26434
-0.130745
0.0492992
25.0973
-0.143793
0.275099
-0.144066
-0.142508
-0.140351
-6.26812
-6.27172
-6.2676
-6.27108
25.1044
-0.542912
0.27456
25.1084
-0.528591
0.274364
25.112
-0.524747
0.275713
25.114
-0.52079
0.276677
25.1144
-0.517125
0.277837
25.1144
-0.514584
0.278464
25.1134
-0.512164
0.279397
25.1114
-0.509965
0.280433
25.1079
-0.508491
0.281594
25.1039
-0.506791
0.282875
25.0987
-0.505913
0.284254
25.0924
-0.505087
0.285407
25.0855
-0.505177
0.287063
25.0778
-0.505717
0.288266
25.0699
-0.507066
0.289359
25.0614
-0.508454
0.290014
25.0532
-0.510908
0.290202
25.0463
-0.514448
0.28977
-0.517214
0.288047
24.9982
0.00706829
0.00179997
24.9928
0.0217876
0.00377793
24.983
0.0371956
0.00614795
24.9681
0.0535213
0.00916574
24.9458
0.0731436
0.01317
24.9135
0.0980297
0.0183869
24.8649
0.130393
0.02627
24.7925
0.171941
0.036988
6.17339
0.220878
0.052362
6.16658
6.17391
6.1669
-0.00776859
6.15844
0.0475985
0.0118151
-0.011058
6.13304
0.0168422
-6.1612
0.0190019
0.0108512
0.0193059
0.0105476
-0.0373208
-0.0152466
-6.08111
6.04876
0.0233595
-0.00326237
0.00239004
-0.00322633
0.00226979
0.0261459
-0.020107
-6.04797
6.06215
0.0308711
0.0516485
-0.0412333
0.0512097
-0.0410386
-0.045332
-0.0250936
-6.10278
6.14377
0.0382394
-0.0509961
-0.129357
-0.0516612
-0.128903
0.306984
-0.0276428
-6.17394
6.18441
0.041921
-0.0492316
-0.0530798
-0.0499051
-0.0524505
0.179991
-0.0292035
-6.19669
6.20978
0.0441286
-0.0497856
-0.0494848
-0.0503156
-0.0489458
0.170551
-0.0306303
-6.22269
6.234
0.0461551
-0.0482683
-0.0484369
-0.0485875
-0.0480914
0.166648
-0.031883
-6.24319
6.25005
0.0478774
-0.045708
-0.0459146
-0.046129
-0.0457249
0.160743
-0.0329288
-6.25625
6.26037
0.0492271
-0.0436572
-0.0439381
-0.0438351
-0.0437815
0.154878
-0.0338003
-6.26434
6.26639
0.0502222
-0.0418452
-0.0421987
-0.0418486
-0.0419817
0.149442
-6.26875
-0.0344065
6.27077
-0.162515
0.0511241
25.0444
-0.639675
0.27024
-6.27242
-6.26564
-6.2721
-6.26614
25.02
-0.631356
0.267199
24.9936
-0.626233
0.264933
24.9674
-0.622891
0.261906
24.9431
-0.621663
0.259061
24.92
-0.621046
0.256811
24.8982
-0.620223
0.254524
24.8774
-0.619162
0.253
24.8566
-0.617765
0.251967
24.8361
-0.616243
0.251342
24.8155
-0.614813
0.250774
24.7948
-0.613596
0.250868
24.7736
-0.612671
0.250646
24.7525
-0.612592
0.250264
24.7313
-0.613075
0.249555
24.7109
-0.614407
0.248286
24.6916
-0.616736
0.246245
24.6742
-0.620573
0.24325
-0.62677
0.238753
25.0019
0.00368808
0.00151469
24.9995
0.0225951
0.00319234
24.9916
0.0424322
0.00517285
24.9794
0.0618801
0.00766348
24.9618
0.0853238
0.010936
24.9357
0.11692
0.0148691
24.8934
0.161863
0.0215155
24.8223
0.227819
0.0301089
6.17276
0.331659
0.0426701
6.17175
6.17314
6.17187
-0.00617454
-0.0623804
6.14753
0.0841736
0.00959766
-0.00202418
-0.0185401
-1.52823
1.52306
0.0230525
0.00268179
-0.00299663
-0.0171776
-1.50506
1.49266
0.028764
0.00383248
-0.00440986
-1.47043
0.0533807
1.48053
-0.0646346
0.00561566
-0.00608102
-1.53023
0.153767
1.54181
-0.166816
0.00761161
-0.0064616
-1.53843
0.0591313
-0.0624666
1.54035
0.00791271
-1.54948
-0.00659483
0.0580467
-0.0625853
0.00849919
1.55212
-0.00682743
0.0555978
-1.5572
1.55842
-0.059241
0.00926235
-0.00712745
0.0517515
-1.56061
1.56091
-0.054969
0.0100511
-0.00750291
0.0492031
-1.56091
1.5608
-0.0522822
0.0106876
-0.00798386
0.0468374
-1.55985
1.55941
-0.049476
0.0110588
-1.5534
-0.0317064
0.174415
6.15965
-0.166391
0.0453417
-1.53505
-1.55445
-1.53841
23.849
-0.720825
0.137059
-6.1023
-5.78977
-6.11401
-5.82852
23.8544
-0.702559
0.133315
23.862
-0.69843
0.129258
23.872
-0.695882
0.124578
23.8832
-0.694567
0.120476
23.8949
-0.693497
0.117399
23.9071
-0.692141
0.114549
23.9192
-0.69032
0.112487
23.931
-0.688116
0.110817
23.9423
-0.685644
0.109342
23.9532
-0.683113
0.107641
23.9633
-0.680836
0.106254
23.9733
-0.678924
0.104308
23.9831
-0.677552
0.101955
23.993
-0.676796
0.0990509
24.0032
-0.676665
0.0954714
24.0138
-0.677118
0.0910076
24.0246
-0.678095
0.0852703
-0.679552
0.0773865
25.0089
0.00241894
0.00124728
25.0096
0.0206722
0.0025428
25.0061
0.0439174
0.0040468
24.9992
0.065869
0.00588089
24.9891
0.0914061
0.00819848
24.9753
0.125698
0.0107081
24.9555
0.174139
0.0151494
24.9245
0.248568
0.0202733
6.21341
0.37245
0.0272289
6.22127
6.21346
6.22139
-0.00374497
-0.102063
6.19782
0.115537
0.00585848
-0.00115597
-0.0380916
-1.54194
1.53575
0.0439031
0.0015365
-0.0015889
-0.0800813
-1.50561
1.48697
0.0981666
0.00215787
-0.000186383
0.00471956
-0.0748943
0.0751757
-0.00504058
0.000226683
0.00310322
-0.18941
0.00971686
-0.0210763
-0.00650302
0.204167
-1.16894
0.0042612
0.0640622
-0.0816755
-0.0176003
1.19989
0.00526454
0.0651244
-1.26806
1.28284
-0.0693621
-0.0157961
0.0061927
0.0692136
-1.32167
1.33316
-0.072814
-0.0140753
0.00723335
0.0662675
-1.35904
1.36579
-0.0675683
-0.0126854
0.00818874
0.0613641
-1.37935
1.38363
-0.062641
-0.0111856
-1.40762
0.0349985
0.197726
5.80197
-0.219114
-0.0394995
-1.49752
-1.37965
-1.4913
24.0459
-0.67318
-0.212669
-5.85316
-6.16501
-5.81042
-6.16883
24.086
-0.64624
-0.20987
24.1226
-0.637305
-0.206738
24.1564
-0.630907
-0.203695
24.1863
-0.625459
-0.200508
24.2124
-0.621144
-0.197229
24.2353
-0.617869
-0.19402
24.2558
-0.615267
-0.191
24.2745
-0.613245
-0.188231
24.2922
-0.611689
-0.185727
24.3095
-0.610737
-0.183508
24.3271
-0.610468
-0.181537
24.3453
-0.610718
-0.17989
24.3641
-0.611092
-0.178524
24.3834
-0.611646
-0.177516
24.403
-0.612236
-0.176974
24.4226
-0.612675
-0.177158
24.4417
-0.61231
-0.17836
-0.609738
-0.180933
25.0083
-0.00272035
0.000916203
25.0154
0.0127305
0.00185126
25.022
0.0359187
0.00285674
25.0258
0.0602118
0.00397909
25.0249
0.0897939
0.00524617
25.029
0.11875
0.00639951
25.0404
0.158873
0.00809174
25.0677
0.216711
0.00925908
6.27516
0.305432
0.00961722
6.28745
6.27643
6.29064
-0.00102416
-0.107337
6.28233
0.0996097
0.00159688
-0.000153224
-0.0434411
-1.57746
1.57907
0.0417925
0.000194949
0.000276157
-0.0805543
-1.59916
1.61553
0.0641389
-0.000242403
0.00158353
-0.0270889
-1.71114
1.74963
0.0600637
0.000553593
-0.0227025
-0.0280274
-0.0229225
0.00347919
0.11011
-1.70951
1.67855
-0.0785788
-0.00410681
0.104662
-1.60863
0.00491837
1.59767
-0.0926015
-0.00605207
0.00574667
0.0740711
-1.5831
-0.00723718
1.5811
-0.0705765
0.00635419
0.0547144
-1.57815
1.57672
-0.0515588
-0.00807365
0.0067643
0.0571109
-1.57591
1.57446
-0.0537784
-0.00863974
0.00710472
0.051497
-1.57352
1.57284
-0.0488877
-0.00902733
0.00735878
0.047733
-1.56996
1.57025
-0.0461466
-0.0092314
-1.57038
0.0305853
0.180992
6.27577
-0.158901
-0.0456843
-1.57046
-1.57066
-1.57127
25.0926
-0.529016
-0.256008
-6.27825
-6.27061
-6.28463
-6.2766
25.0922
-0.519048
-0.256208
25.0885
-0.506311
-0.255534
25.0843
-0.498334
-0.254872
25.0798
-0.491767
-0.254059
25.0759
-0.48729
-0.253088
25.0721
-0.483699
-0.252117
25.0688
-0.481057
-0.25129
25.0658
-0.479199
-0.250704
25.0632
-0.477761
-0.250423
25.0611
-0.477098
-0.250493
25.0597
-0.477177
-0.251153
25.0586
-0.477535
-0.251695
25.0574
-0.477516
-0.252806
25.0571
-0.478312
-0.254243
25.0572
-0.478498
-0.256102
25.0578
-0.478259
-0.258476
25.0588
-0.476891
-0.261467
-0.474731
-0.264937
25.007
-0.00740429
0.000605989
25.0172
0.00202186
0.00118094
25.0314
0.0209852
0.00171809
25.0397
0.0509214
0.00216806
25.0572
0.0713184
0.00244041
25.0804
0.0947
0.00235272
25.1177
0.121096
0.00154961
25.1823
0.152778
-0.000649512
6.32905
0.19289
-0.00548686
6.31833
6.33328
6.31703
-0.0846199
0.00125684
6.34716
0.0672235
-0.00194331
-0.0324993
0.003225
6.42027
0.0855709
-0.00467264
-0.0304272
-0.0325883
-0.0293666
-6.37951
-0.0288652
0.00686968
6.49025
0.0795105
-0.00997689
-0.0283967
-0.0277015
-0.0304617
-6.45128
-0.00923368
0.012126
-6.53815
6.49726
-0.0587686
-0.0183782
0.0628644
-0.0102732
0.0624015
0.0349672
0.01885
-6.49009
6.47215
-0.143957
-0.0281618
0.0513107
0.0342919
0.0505204
0.0578781
-6.44922
0.0240185
6.40648
-0.182328
-0.0356294
0.0570357
0.0613133
0.0604363
0.055785
0.0271676
-6.36715
6.33998
-0.177097
-0.0403982
0.0539247
0.0547972
0.0530118
0.0458919
0.0293703
-6.32644
6.31941
-0.159806
-0.0437276
0.0453478
0.0451567
0.0447675
0.0449
0.0308666
-6.31494
6.30672
-0.156249
-0.0459656
0.045438
0.0443027
0.0448544
0.0441959
0.0316984
-6.29771
6.28852
-0.146084
-0.0472879
0.0416949
0.0437049
0.0412103
0.0391764
0.0321499
-6.28096
6.27312
-0.128901
-0.0479812
0.0361804
0.039743
0.0374468
0.139485
-6.27167
0.0325752
6.27209
-0.124105
-0.0483899
25.074
-0.389935
-0.263995
-6.27058
-6.26858
-6.2712
-6.26834
25.0683
-0.379852
-0.262411
25.0654
-0.370387
-0.260752
25.063
-0.363113
-0.259467
25.0617
-0.357882
-0.258139
25.0603
-0.353746
-0.256758
25.0594
-0.351148
-0.255428
25.0589
-0.349407
-0.254241
25.0581
-0.347874
-0.253264
25.0579
-0.347405
-0.25254
25.0575
-0.346874
-0.252066
25.0573
-0.34714