/*--------------------------------*- C++ -*----------------------------------*\
| =========                 |                                                 |
| \\      /  F ield         | OpenFOAM: The Open Source CFD Toolbox           |
|  \\    /   O peration     | Version:  2306                                  |
|   \\  /    A nd           | Website:  www.openfoam.com                      |
|    \\/     M anipulation  |                                                 |
\*---------------------------------------------------------------------------*/
FoamFile
{
    version     2.0;
    format      ascii;
    arch        "LSB;label=32;scalar=64";
    class       volVectorField;
    location    "1.55";
    object      U;
}
// * * * * * * * * * * * * * * * * * * * * * * * * * * * * * * * * * * * * * //

dimensions      [0 1 -1 0 0 0 0];

internalField   nonuniform List<vector> 
111542
(
(99.9933 0.00581214 0.00239321)
(99.9709 0.0117782 0.00511917)
(99.9292 0.0178494 0.00823993)
(99.8673 0.0241634 0.0121759)
(99.7837 0.0304587 0.0172833)
(99.6766 0.0359575 0.0239958)
(99.5453 0.0388 0.0325816)
(99.392 0.0360218 0.0435559)
(99.2263 0.0229963 0.0574621)
(99.0681 -0.0066667 0.0743907)
(98.9502 -0.0586288 0.0939021)
(98.913 -0.130549 0.115168)
(98.982 -0.204293 0.137312)
(99.1476 -0.260204 0.158379)
(99.3644 -0.287697 0.176879)
(99.5835 -0.296536 0.192454)
(99.7779 -0.295853 0.204959)
(99.9407 -0.290324 0.214734)
(100.073 -0.28268 0.22205)
(100.18 -0.274675 0.227364)
(100.264 -0.267446 0.230864)
(100.33 -0.261134 0.233079)
(100.38 -0.25556 0.234604)
(100.421 -0.251184 0.235492)
(100.453 -0.247922 0.236009)
(100.479 -0.245426 0.236556)
(100.5 -0.243891 0.237071)
(100.517 -0.243235 0.237694)
(100.53 -0.243171 0.238651)
(100.541 -0.243567 0.239959)
(100.549 -0.244359 0.241548)
(100.554 -0.245548 0.243284)
(100.558 -0.246929 0.245222)
(100.561 -0.248439 0.247269)
(100.564 -0.250062 0.249285)
(100.567 -0.251801 0.251122)
(100.57 -0.253701 0.252597)
(100.575 -0.255609 0.253752)
(100.582 -0.257533 0.254533)
(100.596 -0.259681 0.254914)
(99.9936 0.0173033 0.00235373)
(99.9716 0.0349984 0.00497274)
(99.9305 0.0533978 0.0080859)
(99.869 0.0728344 0.0120071)
(99.7848 0.0926985 0.0170862)
(99.6745 0.110904 0.0237505)
(99.5352 0.122535 0.0324598)
(99.3663 0.118798 0.0437644)
(99.1741 0.0851077 0.0581936)
(98.9774 0.0004916 0.0759805)
(98.8171 -0.152291 0.0969764)
(98.759 -0.366694 0.119387)
(98.8468 -0.590259 0.143227)
(99.0582 -0.751004 0.165954)
(99.3197 -0.830474 0.185547)
(99.5663 -0.859045 0.201532)
(99.7745 -0.859652 0.214213)
(99.9437 -0.845744 0.224015)
(100.078 -0.82588 0.231299)
(100.184 -0.804428 0.236473)
(100.266 -0.784074 0.239999)
(100.328 -0.766671 0.242456)
(100.377 -0.752319 0.244226)
(100.414 -0.740918 0.245426)
(100.444 -0.730891 0.246231)
(100.468 -0.721426 0.246904)
(100.488 -0.713228 0.247629)
(100.504 -0.706709 0.24857)
(100.516 -0.701782 0.249841)
(100.526 -0.698423 0.251464)
(100.533 -0.696656 0.25339)
(100.538 -0.696489 0.255537)
(100.542 -0.697649 0.257827)
(100.545 -0.699975 0.260147)
(100.547 -0.703354 0.262359)
(100.549 -0.707683 0.264332)
(100.552 -0.712879 0.265941)
(100.556 -0.718614 0.267125)
(100.562 -0.72471 0.267844)
(100.574 -0.731064 0.268165)
(99.9939 0.0283304 0.00225038)
(99.973 0.0573872 0.00475358)
(99.9336 0.0883458 0.00775923)
(99.8737 0.121992 0.0115608)
(99.7894 0.158019 0.0165201)
(99.6746 0.194075 0.023108)
(99.522 0.223842 0.0318996)
(99.3242 0.233704 0.0435832)
(99.0785 0.197082 0.0589113)
(98.8022 0.0656947 0.0785195)
(98.5544 -0.268741 0.102738)
(98.4467 -0.730258 0.130639)
(98.5734 -1.14666 0.156641)
(98.8799 -1.38314 0.181052)
(99.2227 -1.47774 0.201309)
(99.5167 -1.50499 0.21728)
(99.7504 -1.49112 0.229788)
(99.9313 -1.45851 0.239379)
(100.069 -1.42023 0.246419)
(100.174 -1.38118 0.251337)
(100.252 -1.34574 0.25485)
(100.31 -1.31288 0.257512)
(100.353 -1.29145 0.259526)
(100.388 -1.27999 0.260985)
(100.417 -1.27176 0.262)
(100.441 -1.26401 0.262755)
(100.459 -1.25702 0.263492)
(100.473 -1.2513 0.264451)
(100.482 -1.24696 0.26581)
(100.489 -1.24411 0.267662)
(100.493 -1.24285 0.269995)
(100.495 -1.24323 0.272715)
(100.494 -1.24516 0.27567)
(100.493 -1.24852 0.278674)
(100.49 -1.25317 0.281516)
(100.487 -1.259 0.284001)
(100.484 -1.26586 0.285953)
(100.483 -1.2735 0.287253)
(100.484 -1.28157 0.287875)
(100.488 -1.28938 0.288004)
(99.9945 0.0383782 0.00208812)
(99.9758 0.0781018 0.00441401)
(99.94 0.121406 0.00721403)
(99.8843 0.170228 0.0107734)
(99.8032 0.225683 0.0154578)
(99.6875 0.287189 0.0217628)
(99.5228 0.350465 0.0303487)
(99.2887 0.402913 0.0420638)
(98.9565 0.414839 0.057976)
(98.4627 0.212767 0.0794015)
(98.2083 0.0325793 0.0860791)
(97.8678 -0.622791 0.101777)
(97.9386 -1.4218 0.11576)
(98.4201 -1.93051 0.127798)
(98.9199 -2.07482 0.13969)
(99.3053 -2.10246 0.148184)
(99.6075 -2.06711 0.154427)
(99.83 -2.00377 0.158994)
(99.9918 -1.93726 0.16219)
(100.113 -1.87777 0.164431)
(100.271 -1.94766 0.27366)
(100.313 -1.88175 0.279264)
(100.332 -1.83209 0.28247)
(100.347 -1.79853 0.283717)
(100.363 -1.77286 0.283945)
(100.375 -1.75292 0.28381)
(100.38 -1.73832 0.283789)
(100.38 -1.72849 0.284251)
(100.375 -1.7229 0.285422)
(100.364 -1.7212 0.287356)
(100.35 -1.72309 0.289955)
(100.331 -1.72816 0.293014)
(100.308 -1.73593 0.296257)
(100.283 -1.74589 0.299381)
(100.254 -1.75753 0.302087)
(100.224 -1.77045 0.304109)
(100.194 -1.78433 0.305222)
(100.164 -1.79889 0.305283)
(100.136 -1.81372 0.30428)
(100.106 -1.82732 0.302557)
(99.9956 0.0466854 0.00186515)
(99.9804 0.0954974 0.00394254)
(99.951 0.149965 0.00643406)
(99.9042 0.213747 0.00959545)
(99.8335 0.290533 0.0137662)
(99.7276 0.383922 0.0194097)
(99.5669 0.496582 0.0271713)
(99.3191 0.62702 0.0379088)
(98.8796 0.761657 0.052756)
(98.5379 0.766829 0.0581401)
(97.7314 0.37438 0.0718082)
(96.9367 -0.693821 0.0894311)
(97.0417 -2.3406 0.103888)
(98.1717 -2.93316 0.115109)
(98.8912 -2.9514 0.12999)
(99.3458 -2.9 0.139283)
(99.684 -2.78315 0.145488)
(99.902 -2.66133 0.149633)
(100.046 -2.55638 0.15235)
(100.14 -2.47437 0.155009)
(100.205 -2.43733 0.162601)
(100.122 -2.56363 0.315127)
(100.008 -2.54481 0.321165)
(99.9039 -2.50898 0.320712)
(99.8132 -2.46696 0.315651)
(99.7272 -2.42812 0.308018)
(99.6426 -2.39484 0.299578)
(99.559 -2.3671 0.291701)
(99.4755 -2.34495 0.285248)
(99.3913 -2.32852 0.280565)
(99.3061 -2.31772 0.277562)
(99.22 -2.31213 0.275856)
(99.1333 -2.31113 0.2749)
(99.0467 -2.31397 0.274104)
(98.9611 -2.31986 0.272928)
(98.8774 -2.32811 0.27093)
(98.7969 -2.33821 0.267778)
(98.721 -2.34999 0.263272)
(98.6525 -2.364 0.257384)
(98.585 -2.38228 0.250516)
(99.9971 0.0523138 0.00158353)
(99.987 0.107531 0.00334059)
(99.9673 0.170422 0.00542094)
(99.9351 0.246488 0.00802238)
(99.8847 0.342488 0.0114085)
(99.8059 0.467628 0.0159319)
(99.6793 0.635413 0.0220727)
(99.4684 0.865916 0.0304411)
(99.0492 1.19023 0.0417881)
(98.6411 1.34925 0.0462745)
(97.6893 1.48467 0.0446512)
(95.5899 0.703333 0.0414356)
(94.4158 -3.44343 0.0558675)
(98.2293 -4.71731 0.0495629)
(98.7492 -3.94201 0.0834551)
(99.3152 -3.86201 0.0989732)
(99.658 -3.63472 0.0983134)
(99.7656 -3.41575 0.0812476)
(99.7578 -3.246 0.0555604)
(99.6792 -3.0939 0.0296644)
(98.4502 -2.89853 0.189536)
(95.0938 -2.53288 0.197382)
(95.163 -2.59357 0.190151)
(95.253 -2.60865 0.181551)
(95.3318 -2.60016 0.171414)
(95.4005 -2.58403 0.160333)
(95.4646 -2.56672 0.148841)
(95.526 -2.55149 0.137203)
(95.5844 -2.5407 0.125546)
(95.64 -2.53581 0.113974)
(95.693 -2.53724 0.10261)
(95.7439 -2.54454 0.0915985)
(95.793 -2.55669 0.0810691)
(95.8406 -2.57234 0.0711215)
(95.887 -2.59006 0.0617924)
(95.9326 -2.60857 0.0530287)
(95.9778 -2.62688 0.0446756)
(96.0227 -2.64454 0.0364752)
(96.0668 -2.66205 0.028116)
(96.1169 -2.68197 0.0195395)
(99.999 0.0543048 0.00129551)
(99.9954 0.112058 0.00266881)
(99.988 0.178823 0.00424381)
(99.9755 0.261364 0.00614997)
(99.9551 0.368638 0.00852885)
(99.9221 0.514151 0.0115498)
(99.8678 0.719849 0.0153891)
(99.7777 1.02417 0.0201502)
(99.6031 1.5003 0.0257047)
(99.3338 1.89805 0.0280065)
(98.6104 2.82815 0.0253399)
(95.4603 5.80511 0.0170997)
(77.1623 -4.32772 0.0227261)
(102.769 -10.2936 0.0210605)
(59.2079 -5.38549 -0.542415)
(78.9425 -5.57531 -0.30616)
(82.9499 -4.87267 -0.174277)
(85.282 -4.35801 -0.0766918)
(86.7838 -3.90904 0.00299844)
(87.943 -3.58176 0.0795722)
(93.3334 -3.84327 -0.108311)
(96.3452 -3.36339 -0.276079)
(96.4688 -3.23574 -0.271305)
(96.5903 -3.13458 -0.261735)
(96.6802 -3.05157 -0.251812)
(96.7515 -2.98114 -0.243787)
(96.8184 -2.92185 -0.23838)
(96.8876 -2.8732 -0.235537)
(96.9612 -2.8345 -0.234747)
(97.0399 -2.80478 -0.235258)
(97.1233 -2.78288 -0.236298)
(97.2104 -2.76749 -0.237221)
(97.2994 -2.75724 -0.237585)
(97.3887 -2.75076 -0.237165)
(97.4764 -2.74678 -0.235942)
(97.5612 -2.74415 -0.234072)
(97.6422 -2.74186 -0.231878)
(97.7187 -2.73898 -0.229803)
(97.7903 -2.73433 -0.228421)
(97.8714 -2.72551 -0.228528)
(100.001 0.0523169 0.00102653)
(100.004 0.107932 0.00200214)
(100.011 0.172699 0.00304343)
(100.02 0.253553 0.00419466)
(100.034 0.359662 0.00546554)
(100.055 0.504643 0.00681712)
(100.088 0.709907 0.00809294)
(100.149 1.01125 0.00886399)
(100.291 1.4709 0.00815872)
(100.337 1.88067 0.00782791)
(100.606 2.86423 0.00359161)
(102.414 5.39565 -0.00667984)
(111.162 3.91577 -0.052705)
(109.055 -6.71509 0.0139888)
(102.796 -6.75998 -0.0549701)
(101.156 -4.97576 -0.0735527)
(100.719 -4.00555 -0.0707805)
(100.541 -3.47812 -0.0628255)
(100.446 -3.16775 -0.0554101)
(100.37 -2.9827 -0.0499991)
(100.277 -2.75668 -0.149797)
(100.297 -2.3233 -0.277201)
(100.279 -2.21116 -0.280867)
(100.266 -2.1398 -0.280289)
(100.258 -2.09475 -0.27743)
(100.25 -2.06391 -0.273594)
(100.243 -2.04289 -0.269603)
(100.238 -2.03008 -0.266134)
(100.233 -2.02408 -0.263664)
(100.229 -2.02342 -0.262404)
(100.225 -2.02676 -0.262328)
(100.22 -2.03294 -0.263248)
(100.216 -2.0409 -0.264892)
(100.212 -2.04968 -0.266966)
(100.208 -2.05846 -0.269218)
(100.204 -2.06645 -0.27148)
(100.201 -2.07294 -0.273698)
(100.2 -2.07712 -0.27593)
(100.202 -2.07777 -0.278316)
(100.21 -2.07261 -0.280905)
(100.003 0.0459051 0.000606526)
(100.013 0.0947201 0.00123463)
(100.032 0.151613 0.00181036)
(100.062 0.222548 0.00226677)
(100.107 0.315046 0.00250811)
(100.174 0.439293 0.00233147)
(100.277 0.609497 0.0013278)
(100.443 0.845209 -0.00126459)
(100.758 1.17102 -0.00685299)
(100.981 1.41068 -0.00909369)
(101.83 1.86908 -0.017007)
(103.444 1.77866 -0.0316993)
(105.233 -0.22414 -0.0494123)
(104.784 -2.80837 -0.0301299)
(102.993 -3.52947 -0.0493761)
(101.783 -3.32151 -0.0657483)
(101.155 -2.98233 -0.0764484)
(100.815 -2.696 -0.0835325)
(100.615 -2.48004 -0.0884429)
(100.483 -2.31712 -0.0923173)
(100.39 -2.18628 -0.096914)
(100.293 -1.89491 -0.257888)
(100.262 -1.85424 -0.258452)
(100.242 -1.82238 -0.257171)
(100.232 -1.79859 -0.255283)
(100.226 -1.77983 -0.253485)
(100.223 -1.76452 -0.252112)
(100.221 -1.7524 -0.251353)
(100.219 -1.74329 -0.251266)
(100.218 -1.73682 -0.251784)
(100.216 -1.73251 -0.252755)
(100.214 -1.7299 -0.253995)
(100.211 -1.72847 -0.255325)
(100.209 -1.7277 -0.256604)
(100.207 -1.72706 -0.257749)
(100.205 -1.72601 -0.258742)
(100.205 -1.72403 -0.25964)
(100.206 -1.7206 -0.260558)
(100.211 -1.7153 -0.261668)
(100.227 -1.70826 -0.263202)
(100.004 0.0355581 0.00040251)
(100.02 0.0735107 0.000739274)
(100.049 0.117593 0.000889337)
(100.095 0.17213 0.000745895)
(100.163 0.242171 0.000145489)
(100.263 0.333573 -0.00123695)
(100.409 0.452643 -0.00393781)
(100.627 0.603902 -0.00884321)
(100.96 0.78367 -0.0173911)
(101.445 0.868402 -0.0314229)
(102.084 0.772114 -0.0526892)
(102.761 0.245132 -0.0818888)
(103.122 -0.743768 -0.114512)
(102.878 -1.57721 -0.144278)
(102.237 -1.88881 -0.174527)
(101.607 -1.90094 -0.199436)
(101.159 -1.82133 -0.217007)
(100.868 -1.72102 -0.22874)
(100.674 -1.62384 -0.236374)
(100.538 -1.53591 -0.241109)
(100.446 -1.45788 -0.243858)
(100.385 -1.38704 -0.245382)
(100.344 -1.32859 -0.245852)
(100.316 -1.27984 -0.245676)
(100.297 -1.24057 -0.245201)
(100.283 -1.20975 -0.244662)
(100.272 -1.18584 -0.244234)
(100.263 -1.1677 -0.24405)
(100.256 -1.15441 -0.244197)
(100.249 -1.14516 -0.244707)
(100.243 -1.13912 -0.24557)
(100.237 -1.13558 -0.246739)
(100.231 -1.13384 -0.248151)
(100.226 -1.13328 -0.249729)
(100.222 -1.13328 -0.251414)
(100.219 -1.1333 -0.253163)
(100.217 -1.13289 -0.254964)
(100.218 -1.13163 -0.25684)
(100.221 -1.12931 -0.258853)
(100.229 -1.12611 -0.261103)
(100.005 0.0225547 0.000223851)
(100.025 0.0464945 0.000316215)
(100.061 0.0742728 0.000162733)
(100.118 0.108232 -0.000380406)
(100.2 0.151274 -0.00155505)
(100.318 0.205823 -0.00371172)
(100.482 0.273368 -0.00742183)
(100.71 0.351452 -0.0134965)
(101.019 0.427202 -0.023062)
(101.419 0.461431 -0.0374073)
(101.883 0.398004 -0.0576741)
(102.313 0.161787 -0.0842585)
(102.537 -0.258241 -0.114825)
(102.422 -0.688747 -0.144941)
(102.034 -0.935915 -0.172781)
(101.576 -0.999606 -0.195628)
(101.196 -0.97509 -0.212766)
(100.922 -0.924358 -0.224707)
(100.726 -0.870454 -0.23268)
(100.583 -0.819925 -0.237682)
(100.478 -0.775535 -0.240499)
(100.402 -0.740376 -0.241783)
(100.347 -0.714669 -0.242078)
(100.307 -0.69646 -0.241701)
(100.279 -0.684072 -0.240939)
(100.258 -0.676298 -0.240057)
(100.243 -0.671991 -0.239271)
(100.231 -0.670231 -0.238728)
(100.222 -0.670381 -0.238502)
(100.214 -0.671968 -0.23861)
(100.208 -0.674566 -0.239028)
(100.203 -0.677817 -0.239704)
(100.199 -0.681393 -0.240566)
(100.196 -0.685043 -0.241545)
(100.193 -0.688243 -0.242613)
(100.192 -0.690906 -0.243708)
(100.193 -0.692857 -0.244812)
(100.196 -0.693928 -0.245949)
(100.202 -0.694048 -0.247204)
(100.217 -0.693158 -0.248782)
(100.006 0.00772483 0.000116228)
(100.027 0.0158724 0.000123516)
(100.067 0.0253615 -0.000219985)
(100.129 0.0368258 -0.000912075)
(100.218 0.051306 -0.00238683)
(100.342 0.0693592 -0.00492591)
(100.513 0.0909961 -0.00913663)
(100.74 0.114746 -0.015712)
(101.031 0.135506 -0.0257634)
(101.38 0.140665 -0.0400581)
(101.753 0.110282 -0.0593186)
(102.074 0.023671 -0.0835294)
(102.24 -0.116029 -0.111211)
(102.174 -0.261353 -0.139575)
(101.899 -0.354691 -0.165366)
(101.537 -0.385033 -0.187089)
(101.202 -0.380872 -0.204035)
(100.938 -0.366373 -0.21612)
(100.742 -0.350527 -0.224312)
(100.596 -0.335565 -0.22949)
(100.486 -0.322258 -0.232432)
(100.406 -0.311171 -0.233762)
(100.348 -0.30189 -0.233997)
(100.306 -0.293807 -0.23347)
(100.277 -0.286363 -0.232628)
(100.256 -0.27939 -0.23174)
(100.24 -0.272822 -0.230981)
(100.228 -0.26664 -0.230475)
(100.219 -0.260869 -0.230289)
(100.211 -0.255548 -0.230447)
(100.204 -0.250693 -0.230935)
(100.199 -0.246297 -0.231705)
(100.194 -0.242338 -0.232686)
(100.19 -0.238811 -0.233761)
(100.187 -0.235443 -0.235074)
(100.185 -0.232283 -0.236445)
(100.186 -0.229299 -0.237813)
(100.188 -0.226448 -0.239192)
(100.193 -0.223813 -0.240649)
(100.203 -0.221886 -0.242391)
(99.9935 0.00577308 0.00708788)
(99.9715 0.0116327 0.0149929)
(99.9307 0.0176977 0.0242518)
(99.8702 0.0239996 0.0358809)
(99.7889 0.030269 0.0508873)
(99.6846 0.0357248 0.0704658)
(99.5567 0.0386938 0.0956922)
(99.4077 0.0362455 0.128016)
(99.2467 0.0237405 0.168796)
(99.0926 -0.00509107 0.218418)
(98.9776 -0.0556752 0.276114)
(98.9413 -0.126425 0.339371)
(99.0086 -0.198158 0.404333)
(99.1696 -0.252053 0.465765)
(99.3811 -0.278321 0.519462)
(99.5959 -0.286603 0.56422)
(99.7878 -0.285647 0.600019)
(99.9498 -0.280032 0.627792)
(100.083 -0.272396 0.648462)
(100.191 -0.264566 0.663206)
(100.276 -0.257273 0.67293)
(100.343 -0.250703 0.679022)
(100.394 -0.244877 0.682872)
(100.434 -0.240185 0.685017)
(100.466 -0.236621 0.68606)
(100.49 -0.233987 0.686684)
(100.51 -0.232222 0.687001)
(100.524 -0.231228 0.687358)
(100.535 -0.230834 0.68816)
(100.542 -0.230902 0.689507)
(100.547 -0.231345 0.691358)
(100.551 -0.232111 0.693584)
(100.553 -0.233137 0.696261)
(100.554 -0.234382 0.699253)
(100.555 -0.235815 0.702326)
(100.557 -0.237426 0.705215)
(100.56 -0.239198 0.707598)
(100.565 -0.241079 0.70939)
(100.573 -0.243068 0.710354)
(100.589 -0.245269 0.710235)
(99.9937 0.0171616 0.00694825)
(99.9722 0.0346362 0.0146385)
(99.932 0.0529241 0.0237982)
(99.8721 0.0722321 0.0353244)
(99.7902 0.0919574 0.0502377)
(99.6829 0.11006 0.069787)
(99.5475 0.121922 0.0953815)
(99.3835 0.118915 0.128667)
(99.1968 0.0866476 0.171224)
(99.0056 0.00464886 0.223983)
(98.8489 -0.143805 0.286577)
(98.793 -0.351437 0.355965)
(98.8799 -0.570044 0.427548)
(99.086 -0.728248 0.494363)
(99.341 -0.805673 0.551019)
(99.5821 -0.833549 0.596843)
(99.7869 -0.833937 0.632892)
(99.9543 -0.820097 0.660485)
(100.088 -0.800497 0.680755)
(100.194 -0.779472 0.694833)
(100.276 -0.759175 0.703953)
(100.339 -0.74143 0.709834)
(100.387 -0.72669 0.713609)
(100.424 -0.714784 0.715759)
(100.453 -0.704296 0.716746)
(100.476 -0.694622 0.717167)
(100.494 -0.686179 0.717495)
(100.508 -0.6793 0.718107)
(100.519 -0.673944 0.719245)
(100.527 -0.670026 0.720988)
(100.532 -0.667514 0.72331)
(100.536 -0.666385 0.726133)
(100.539 -0.666549 0.729373)
(100.54 -0.667949 0.732871)
(100.542 -0.67053 0.736403)
(100.543 -0.674212 0.739718)
(100.545 -0.678912 0.742546)
(100.549 -0.684457 0.744661)
(100.556 -0.69062 0.745826)
(100.569 -0.697113 0.745879)
(99.994 0.0280662 0.00663897)
(99.9736 0.0568336 0.0139975)
(99.9352 0.0874851 0.0228234)
(99.8769 0.12078 0.0339923)
(99.795 0.156427 0.0485746)
(99.6836 0.192164 0.0679551)
(99.5355 0.221866 0.0938615)
(99.3436 0.232214 0.128394)
(99.1052 0.197138 0.173856)
(98.837 0.069213 0.232236)
(98.597 -0.257479 0.304078)
(98.492 -0.70876 0.385989)
(98.6149 -1.11592 0.468239)
(98.9137 -1.34789 0.542674)
(99.2476 -1.44102 0.602562)
(99.5348 -1.46829 0.649058)
(99.7647 -1.45464 0.684967)
(99.9434 -1.42224 0.712067)
(100.08 -1.38405 0.731463)
(100.183 -1.34482 0.744177)
(100.261 -1.30788 0.751263)
(100.317 -1.27264 0.755307)
(100.36 -1.25029 0.757898)
(100.393 -1.23899 0.759335)
(100.421 -1.23126 0.759712)
(100.443 -1.224 0.759449)
(100.46 -1.21725 0.75909)
(100.473 -1.21138 0.759068)
(100.483 -1.20644 0.759668)
(100.489 -1.20254 0.761041)
(100.493 -1.19984 0.763223)
(100.495 -1.1985 0.76616)
(100.495 -1.19863 0.769721)
(100.493 -1.20027 0.7737)
(100.49 -1.20343 0.777826)
(100.487 -1.20811 0.781779)
(100.484 -1.21425 0.785208)
(100.482 -1.22169 0.787775)
(100.483 -1.23006 0.78922)
(100.488 -1.2384 0.789563)
(99.9947 0.0379956 0.0061549)
(99.9764 0.0772984 0.0129885)
(99.9416 0.120097 0.0212106)
(99.8876 0.168292 0.0316757)
(99.8089 0.222982 0.0454774)
(99.6967 0.283602 0.0640938)
(99.5371 0.345946 0.0895327)
(99.3099 0.397607 0.124432)
(98.987 0.409263 0.172167)
(98.5056 0.210496 0.236827)
(98.2523 0.027494 0.269474)
(97.9191 -0.630088 0.34549)
(97.992 -1.42411 0.425549)
(98.469 -1.93504 0.498839)
(98.958 -2.081 0.555508)
(99.335 -2.11221 0.597187)
(99.632 -2.07926 0.629226)
(99.851 -2.01661 0.653894)
(100.01 -1.9492 0.672063)
(100.129 -1.88713 0.68461)
(100.273 -1.91897 0.808191)
(100.313 -1.84468 0.808796)
(100.329 -1.7906 0.807058)
(100.341 -1.7575 0.804653)
(100.357 -1.73553 0.802453)
(100.369 -1.7207 0.800928)
(100.376 -1.71115 0.800388)
(100.378 -1.70517 0.80104)
(100.375 -1.70154 0.802967)
(100.367 -1.6997 0.806128)
(100.356 -1.69945 0.810394)
(100.34 -1.70082 0.815542)
(100.319 -1.7039 0.821277)
(100.295 -1.7088 0.827228)
(100.268 -1.71562 0.832967)
(100.238 -1.72441 0.838033)
(100.207 -1.73522 0.841924)
(100.176 -1.74801 0.844144)
(100.147 -1.76244 0.844267)
(100.115 -1.77683 0.842136)
(99.9957 0.0461845 0.00548929)
(99.981 0.0944341 0.011589)
(99.9526 0.148192 0.0189101)
(99.9072 0.211032 0.0282211)
(99.8388 0.286548 0.040546)
(99.7363 0.37822 0.0573019)
(99.5805 0.488561 0.0804943)
(99.3395 0.615884 0.112881)
(98.9104 0.746315 0.158173)
(98.5717 0.746322 0.184043)
(97.7772 0.352775 0.250264)
(96.9943 -0.711051 0.336295)
(97.1049 -2.34217 0.432556)
(98.226 -2.93163 0.514807)
(98.9273 -2.94562 0.567442)
(99.3693 -2.89991 0.600742)
(99.7025 -2.78692 0.627972)
(99.9177 -2.66601 0.651132)
(100.059 -2.55898 0.669744)
(100.151 -2.47119 0.683847)
(100.216 -2.42081 0.694649)
(100.136 -2.5391 0.789078)
(100.016 -2.52694 0.773145)
(99.9021 -2.49968 0.755623)
(99.8035 -2.46801 0.738805)
(99.7119 -2.43986 0.724043)
(99.6247 -2.41596 0.711956)
(99.5416 -2.39509 0.702902)
(99.4617 -2.37658 0.697036)
(99.3835 -2.36028 0.694252)
(99.3056 -2.34629 0.694181)
(99.2271 -2.33474 0.696233)
(99.1475 -2.32582 0.699652)
(99.0668 -2.31972 0.703594)
(98.9851 -2.31665 0.707196)
(98.9033 -2.31677 0.70963)
(98.8225 -2.32031 0.710081)
(98.7443 -2.32765 0.707778)
(98.6721 -2.33971 0.702022)
(98.6009 -2.35871 0.692549)
(99.9972 0.0517473 0.00462991)
(99.9876 0.106267 0.00978027)
(99.9686 0.168251 0.0158973)
(99.9376 0.243075 0.0235766)
(99.8891 0.337309 0.0336282)
(99.813 0.459886 0.0471631)
(99.6902 0.62387 0.0657248)
(99.4845 0.848646 0.0914199)
(99.0728 1.16414 0.127)
(98.6674 1.31912 0.148536)
(97.7225 1.44823 0.178927)
(95.6397 0.660765 0.237747)
(94.4827 -3.47801 0.340351)
(98.3277 -4.71283 0.436679)
(98.8346 -3.83403 0.458023)
(99.3703 -3.76702 0.46795)
(99.7072 -3.5532 0.491769)
(99.7984 -3.35084 0.527782)
(99.7695 -3.20056 0.568601)
(99.679 -3.05308 0.60864)
(98.5866 -2.75741 0.669804)
(95.233 -2.31483 0.390626)
(95.2625 -2.39724 0.369066)
(95.3188 -2.44945 0.350005)
(95.3707 -2.48759 0.33514)
(95.4201 -2.52028 0.3252)
(95.4716 -2.54743 0.319726)
(95.5253 -2.56773 0.317772)
(95.5793 -2.58118 0.318331)
(95.6317 -2.58877 0.320449)
(95.6816 -2.59196 0.323238)
(95.7288 -2.59237 0.325911)
(95.7733 -2.59165 0.327728)
(95.816 -2.59128 0.328084)
(95.8577 -2.59244 0.326484)
(95.8994 -2.59601 0.322495)
(95.9418 -2.60253 0.315657)
(95.9855 -2.61248 0.30538)
(96.0303 -2.62681 0.290741)
(96.0865 -2.64864 0.270122)
(99.999 0.0537334 0.00379168)
(99.9957 0.110712 0.00782001)
(99.989 0.176445 0.0124529)
(99.9773 0.257546 0.0180852)
(99.9581 0.362723 0.0251733)
(99.9266 0.505104 0.0342838)
(99.8743 0.706012 0.0460826)
(99.7862 1.00291 0.0611456)
(99.6129 1.46733 0.0794878)
(99.3445 1.85842 0.0906049)
(98.6224 2.77477 0.102946)
(95.4612 5.71031 0.131374)
(77.3483 -4.70388 0.246708)
(48.8534 -3.02494 -1.24901)
(75.024 -4.86529 -0.903668)
(81.076 -4.75092 -0.789557)
(84.8297 -4.63073 -0.734955)
(87.0648 -4.34188 -0.726673)
(88.2819 -3.98192 -0.712448)
(92.4947 -3.71777 -0.614345)
(96.034 -3.28191 -0.64834)
(96.2071 -3.17049 -0.626514)
(96.3905 -3.09433 -0.602028)
(96.5426 -3.04047 -0.579148)
(96.6695 -2.99918 -0.559144)
(96.7801 -2.96563 -0.54234)
(96.878 -2.93715 -0.528923)
(96.9653 -2.91217 -0.518855)
(97.0444 -2.88985 -0.51182)
(97.1183 -2.86989 -0.507326)
(97.1897 -2.85232 -0.50481)
(97.261 -2.83723 -0.503715)
(97.3335 -2.82471 -0.503589)
(97.408 -2.81471 -0.504131)
(97.4848 -2.80699 -0.505261)
(97.5633 -2.8011 -0.50721)
(97.6426 -2.79629 -0.510545)
(97.7211 -2.79135 -0.516273)
(97.8134 -2.78367 -0.525757)
(100.001 0.0516111 0.00284082)
(100.005 0.106491 0.00570279)
(100.011 0.170265 0.00878861)
(100.021 0.249683 0.0122197)
(100.035 0.353673 0.0160546)
(100.056 0.495469 0.0202405)
(100.089 0.695923 0.0244117)
(100.149 0.989994 0.0274684)
(100.286 1.43876 0.026679)
(100.33 1.84211 0.024955)
(100.592 2.81275 0.0138524)
(102.367 5.32627 -0.0182549)
(110.932 4.11966 -0.00992319)
(108.939 -6.54039 -0.205259)
(102.736 -6.68123 -0.324931)
(101.13 -4.893 -0.391146)
(100.713 -3.93305 -0.43873)
(100.554 -3.41832 -0.474379)
(100.471 -3.11655 -0.501621)
(100.403 -2.93291 -0.522792)
(100.305 -2.73992 -0.61219)
(100.325 -2.33255 -0.742227)
(100.31 -2.22736 -0.739674)
(100.298 -2.16513 -0.732518)
(100.286 -2.12846 -0.724235)
(100.272 -2.10378 -0.715904)
(100.258 -2.08625 -0.707759)
(100.246 -2.07442 -0.70021)
(100.234 -2.06738 -0.693757)
(100.224 -2.06438 -0.688783)
(100.215 -2.0648 -0.685532)
(100.208 -2.06811 -0.684108)
(100.203 -2.07374 -0.684493)
(100.199 -2.08106 -0.686547)
(100.197 -2.08937 -0.69014)
(100.196 -2.09786 -0.695162)
(100.196 -2.10566 -0.701628)
(100.198 -2.11166 -0.709705)
(100.202 -2.11424 -0.719696)
(100.215 -2.11049 -0.731654)
(100.003 0.0452708 0.00179531)
(100.013 0.0934503 0.00360021)
(100.032 0.149455 0.005266)
(100.062 0.219115 0.00663025)
(100.107 0.309757 0.007414)
(100.173 0.431268 0.00704546)
(100.274 0.597499 0.00438791)
(100.436 0.827527 -0.00271302)
(100.744 1.14537 -0.0183047)
(100.963 1.3807 -0.0293429)
(101.795 1.83087 -0.067983)
(103.385 1.73596 -0.140897)
(105.146 -0.24212 -0.24559)
(104.699 -2.79487 -0.362593)
(102.943 -3.52741 -0.453494)
(101.753 -3.32269 -0.517085)
(101.138 -2.98823 -0.560768)
(100.806 -2.70563 -0.589416)
(100.613 -2.49156 -0.607529)
(100.484 -2.32904 -0.618914)
(100.393 -2.19387 -0.626652)
(100.297 -1.88324 -0.771705)
(100.269 -1.83942 -0.76756)
(100.251 -1.80719 -0.761307)
(100.24 -1.78442 -0.754499)
(100.234 -1.76723 -0.747768)
(100.229 -1.75365 -0.741398)
(100.225 -1.74302 -0.735652)
(100.222 -1.73489 -0.730748)
(100.22 -1.72879 -0.726813)
(100.218 -1.72424 -0.723903)
(100.216 -1.72088 -0.722013)
(100.214 -1.71835 -0.721107)
(100.212 -1.7163 -0.721105)
(100.211 -1.71432 -0.721973)
(100.21 -1.71197 -0.723707)
(100.21 -1.70875 -0.726385)
(100.211 -1.70408 -0.730182)
(100.216 -1.6975 -0.735353)
(100.229 -1.68921 -0.742126)
(100.004 0.0351678 0.00109698)
(100.02 0.0725798 0.00201117)
(100.049 0.11594 0.00244613)
(100.095 0.169514 0.00208399)
(100.162 0.238138 0.000399517)
(100.26 0.327551 -0.00352262)
(100.403 0.443893 -0.0112122)
(100.616 0.591548 -0.0252123)
(100.941 0.766807 -0.0496571)
(101.414 0.850019 -0.090373)
(102.038 0.756442 -0.153228)
(102.7 0.241123 -0.241946)
(103.052 -0.723219 -0.348006)
(102.813 -1.54264 -0.460253)
(102.187 -1.85245 -0.555438)
(101.573 -1.8648 -0.625639)
(101.137 -1.78652 -0.673573)
(100.853 -1.68824 -0.704889)
(100.663 -1.59285 -0.724532)
(100.529 -1.50603 -0.735812)
(100.438 -1.42835 -0.740917)
(100.378 -1.35619 -0.741272)
(100.338 -1.29764 -0.739716)
(100.311 -1.2497 -0.737213)
(100.292 -1.21128 -0.734009)
(100.279 -1.18099 -0.730465)
(100.27 -1.15729 -0.727016)
(100.262 -1.13903 -0.724002)
(100.256 -1.12536 -0.721648)
(100.25 -1.11556 -0.720086)
(100.245 -1.10896 -0.719382)
(100.24 -1.10491 -0.719541)
(100.236 -1.10283 -0.720527)
(100.231 -1.10213 -0.722259)
(100.228 -1.10221 -0.724677)
(100.225 -1.10249 -0.727733)
(100.223 -1.10242 -0.731426)
(100.222 -1.10148 -0.735809)
(100.225 -1.09938 -0.74098)
(100.23 -1.09627 -0.746934)
(100.005 0.0222671 0.000560311)
(100.025 0.0458903 0.000800088)
(100.061 0.0732084 0.000377643)
(100.117 0.106641 -0.00114635)
(100.199 0.148803 -0.00449418)
(100.314 0.202213 -0.0106849)
(100.475 0.268317 -0.0213417)
(100.698 0.344771 -0.0388556)
(101 0.418915 -0.0665272)
(101.39 0.452755 -0.108351)
(101.843 0.391183 -0.168054)
(102.263 0.160174 -0.246914)
(102.483 -0.252429 -0.33996)
(102.373 -0.674589 -0.435368)
(101.994 -0.915311 -0.520395)
(101.547 -0.976481 -0.586851)
(101.177 -0.95161 -0.634649)
(100.908 -0.901515 -0.667447)
(100.715 -0.848454 -0.689057)
(100.573 -0.798653 -0.702301)
(100.467 -0.754728 -0.709282)
(100.391 -0.719594 -0.711762)
(100.336 -0.693828 -0.711603)
(100.296 -0.675412 -0.709757)
(100.269 -0.662785 -0.706793)
(100.249 -0.654778 -0.703283)
(100.236 -0.650259 -0.699752)
(100.226 -0.648302 -0.696581)
(100.219 -0.648264 -0.694)
(100.214 -0.649663 -0.692128)
(100.211 -0.652071 -0.691002)
(100.208 -0.655125 -0.6906)
(100.206 -0.658486 -0.690856)
(100.204 -0.661859 -0.691683)
(100.203 -0.664917 -0.693046)
(100.202 -0.667431 -0.694852)
(100.202 -0.669169 -0.69707)
(100.204 -0.669962 -0.699748)
(100.209 -0.669731 -0.703013)
(100.221 -0.668544 -0.707092)
(100.006 0.00761638 0.000294901)
(100.027 0.0156807 0.000228647)
(100.067 0.0249768 -0.000678903)
(100.128 0.0362851 -0.00273945)
(100.216 0.0504227 -0.00694527)
(100.339 0.0680701 -0.0141933)
(100.506 0.0892461 -0.0261152)
(100.728 0.112532 -0.0449433)
(101.013 0.132824 -0.0736892)
(101.354 0.138029 -0.115157)
(101.719 0.108658 -0.171735)
(102.034 0.0244956 -0.243494)
(102.197 -0.111531 -0.326227)
(102.133 -0.253333 -0.411231)
(101.866 -0.343861 -0.488695)
(101.512 -0.373243 -0.552135)
(101.182 -0.369065 -0.599635)
(100.923 -0.354779 -0.633068)
(100.728 -0.339195 -0.655538)
(100.582 -0.32443 -0.6696)
(100.471 -0.311253 -0.677336)
(100.39 -0.3002 -0.680484)
(100.332 -0.290841 -0.680595)
(100.291 -0.282584 -0.678805)
(100.263 -0.275036 -0.676087)
(100.243 -0.268035 -0.673038)
(100.23 -0.261478 -0.670088)
(100.222 -0.255321 -0.66757)
(100.216 -0.249588 -0.665702)
(100.211 -0.244322 -0.6646)
(100.208 -0.239547 -0.664289)
(100.205 -0.235262 -0.664729)
(100.203 -0.231442 -0.665828)
(100.201 -0.228034 -0.667431)
(100.199 -0.224931 -0.669675)
(100.198 -0.222066 -0.672308)
(100.197 -0.219362 -0.675232)
(100.198 -0.216762 -0.678466)
(100.202 -0.214335 -0.682105)
(100.208 -0.212572 -0.686323)
(99.9938 0.00567321 0.0114218)
(99.9728 0.0114256 0.0239664)
(99.934 0.0173999 0.038844)
(99.8767 0.0236145 0.0574667)
(99.7998 0.0298209 0.0814137)
(99.7014 0.0353019 0.112589)
(99.5811 0.0385203 0.153067)
(99.4413 0.0367132 0.205179)
(99.2903 0.0254902 0.271063)
(99.1461 -0.00103042 0.351731)
(99.0387 -0.0481965 0.446291)
(99.0052 -0.114074 0.550561)
(99.0689 -0.181292 0.65699)
(99.2213 -0.231647 0.757306)
(99.4218 -0.255974 0.844592)
(99.6264 -0.263452 0.916767)
(99.8105 -0.262221 0.974434)
(99.9673 -0.256617 1.01925)
(100.097 -0.249172 1.05291)
(100.203 -0.241706 1.07719)
(100.288 -0.234811 1.09386)
(100.355 -0.228465 1.10499)
(100.406 -0.222749 1.11258)
(100.446 -0.218152 1.11798)
(100.476 -0.21473 1.1219)
(100.498 -0.212224 1.12482)
(100.515 -0.210458 1.12712)
(100.527 -0.209326 1.12923)
(100.535 -0.208706 1.13156)
(100.539 -0.208485 1.13431)
(100.541 -0.208582 1.13758)
(100.542 -0.208952 1.14137)
(100.542 -0.209551 1.14564)
(100.542 -0.210346 1.15024)
(100.542 -0.211302 1.15494)
(100.543 -0.212413 1.15943)
(100.546 -0.213672 1.16335)
(100.551 -0.215059 1.16635)
(100.559 -0.216587 1.16796)
(100.574 -0.218364 1.16761)
(99.994 0.0168564 0.0111757)
(99.9735 0.0340086 0.0234659)
(99.9354 0.0519797 0.038105)
(99.8787 0.0709634 0.0565062)
(99.8014 0.0904148 0.0803116)
(99.7005 0.108459 0.111579)
(99.5733 0.120808 0.152715)
(99.4197 0.11932 0.20652)
(99.245 0.0903489 0.275808)
(99.066 0.0144552 0.362589)
(98.9199 -0.124564 0.466587)