/*--------------------------------*- C++ -*----------------------------------*\
| =========                 |                                                 |
| \\      /  F ield         | OpenFOAM: The Open Source CFD Toolbox           |
|  \\    /   O peration     | Version:  2306                                  |
|   \\  /    A nd           | Website:  www.openfoam.com                      |
|    \\/     M anipulation  |                                                 |
\*---------------------------------------------------------------------------*/
FoamFile
{
    version     2.0;
    format      ascii;
    arch        "LSB;label=32;scalar=64";
    class       volVectorField;
    location    "0.8";
    object      Force;
}
// * * * * * * * * * * * * * * * * * * * * * * * * * * * * * * * * * * * * * //

dimensions      [1 1 -2 0 0 0 0];

internalField   uniform (0 0 0);

boundaryField
{
    walls
    {
        type            calculated;
        value           uniform (0 0 0);
    }
    inlet
    {
        type            calculated;
        value           uniform (0 0 0);
    }
    outlet
    {
        type            calculated;
        value           uniform (0 0 0);
    }
    NASA
    {
        type            calculated;
        value           nonuniform List<vector> 
14179
(
(-0.0143515 -0.132015 1.34872e-06)
(-0.0128001 -0.105845 6.1762e-07)
(-0.0668775 -0.540957 0.00014556)
(-0.0997782 -0.802022 0.000527887)
(-0.0651423 -0.527466 7.3102e-05)
(-0.10887 -0.874951 0.000627865)
(0.214492 0.931486 -7.29629e-05)
(0.104506 0.524708 -3.81517e-05)
(0.676471 3.31732 0.00475643)
(0.110884 0.556742 -4.03058e-05)
(0.000429169 -0.00179559 2.34982e-07)
(-0.0177496 -0.145032 0.00013655)
(0.131192 0.654822 -0.00039796)
(-0.0353582 -0.321308 0.0004208)
(0.0621731 0.310187 -0.000170961)
(1.38005 0.930908 0.00280996)
(1.39019 0.92116 -0.000171942)
(0.0232631 0.130652 -1.30073e-05)
(0.161332 0.95732 -8.38732e-05)
(1.27715 0.84639 2.01252e-05)
(-0.0169069 -0.236611 -1.71047e-05)
(-0.0210293 -0.195582 -0.000144446)
(-0.0193443 -0.268634 -0.000261712)
(-0.00848212 -0.0618151 3.99385e-07)
(-0.0129722 -0.107327 6.34369e-06)
(-0.00916702 -0.0668018 7.87481e-06)
(-0.0129228 -0.106358 0.000166849)
(-0.0151106 -0.108229 0.000175553)
(-0.013282 -0.121213 0.000192496)
(-0.0155728 -0.213468 0.00334364)
(0.0471582 0.205938 3.8772e-05)
(0.0531693 0.250697 1.06965e-05)
(0.0571511 0.269479 -5.16507e-05)
(0.0465037 0.20258 -1.51783e-05)
(0.0678961 0.249108 -5.09315e-06)
(0.0659647 0.24194 -8.57107e-06)
(0.0356741 0.129453 -2.64879e-06)
(0.0352737 0.127964 -7.71992e-06)
(-0.00190834 -0.00918298 0.000129203)
(-0.0129507 -0.0629992 0.000555119)
(0.170858 0.623739 -0.000113244)
(0.100076 0.360657 0.000285244)
(0.110472 0.554391 -3.00698e-05)
(-0.00580714 -0.0408667 1.81094e-06)
(-0.00530113 -0.0373015 -6.72078e-06)
(0.168351 0.845472 -5.27758e-05)
(-0.00978685 -0.067664 0.000143155)
(0.0976162 0.487056 0.000118114)
(0.0907699 0.453297 -1.20108e-06)
(0.108241 0.442228 -0.000306895)
(0.0847312 0.314973 -1.38256e-05)
(0.084397 0.313711 -1.81138e-05)
(-0.0640747 1.56542 -0.000114322)
(1.38923 0.923559 -0.000712475)
(-0.0644323 1.58381 8.70675e-05)
(-0.00263405 1.31976 -0.000103794)
(0.0655271 0.990953 4.08355e-05)
(0.0626866 0.947072 -4.59289e-05)
(-0.00267043 1.33079 -5.64077e-06)
(0.0925601 0.363858 -2.50736e-05)
(0.160406 0.95118 -6.4903e-05)
(0.0078233 0.0284571 7.92256e-05)
(-0.0227944 0.567256 5.73905e-05)
(0.9237 0.630112 0.0780949)
(-0.000687526 0.533731 -0.00024013)
(0.0270783 0.410996 -6.51484e-05)
(0.128011 0.748783 0.00810796)
(-0.0144836 -0.144944 3.31872e-06)
(-0.0142929 -0.131555 1.58623e-06)
(-0.0981042 -0.788687 0.000516086)
(-0.0112669 -0.089385 1.17781e-06)
(-0.012776 -0.105652 1.21217e-06)
(1.32299 0.875752 -0.000628222)
(1.27538 0.844503 -0.000390888)
(0.347582 2.05941 -0.00172917)
(0.262082 1.54735 -0.000992137)
(-0.110348 -0.887919 -0.000842094)
(-0.055927 -0.347903 0.00028057)
(-0.0551916 -0.345417 0.000259854)
(-0.0420142 -0.246389 0.000221791)
(0.157634 0.679864 -0.000519252)
(0.176966 0.764715 -0.00055871)
(0.764398 1.31239 -6.02349e-05)
(0.764796 1.31106 -0.000339514)
(0.106524 0.53469 -2.84996e-05)
(0.093991 0.451644 -2.30946e-05)
(-8.54164e-05 -0.00201347 -1.0037e-06)
(0.00165912 0.00859384 1.15718e-08)
(0.00169277 0.00878622 -1.44025e-06)
(-7.50159e-05 -0.001943 9.64981e-08)
(0.112999 0.567324 -1.20826e-05)
(0.104097 0.537009 -2.55573e-05)
(-0.0200129 -0.163441 0.000148)
(-0.01343 -0.0961245 0.000103252)
(-0.020283 -0.144746 0.000130173)
(-0.0122568 -0.0844275 9.78043e-05)
(-0.0180555 -0.123736 6.90011e-05)
(0.0861024 0.429411 -0.000349468)
(-0.0199907 -0.181715 0.000148127)
(-0.0245403 -0.337195 0.000584457)
(-0.0207786 -0.291582 -0.000341433)
(0.0807645 0.403156 -0.000298853)
(1.37716 0.924856 -0.00271443)
(0.103359 0.609359 -3.48813e-05)
(0.114322 0.639403 -1.49234e-05)
(0.115571 0.646127 -3.41542e-05)
(0.184184 1.28237 -1.28292e-05)
(0.09956 0.590514 -2.68611e-05)
(0.160746 0.953611 -4.43072e-05)
(0.0237138 0.022412 1.75717e-05)
(0.322743 -0.118926 0.00324083)
(0.346092 -0.137203 0.00163344)
(0.0143294 0.0137652 -3.76422e-05)
(-0.00648551 -0.0278552 9.49985e-05)
(0.0217806 0.0802584 -2.45393e-06)
(0.00250893 0.00863956 6.51313e-05)
(0.0220806 0.0888269 8.97996e-05)
(-0.00935394 -0.041737 5.07381e-05)
(-0.00158436 -0.00916147 8.71319e-05)
(0.00442272 0.0184559 3.42567e-05)
(-0.0180111 -0.0870758 7.15551e-05)
(-0.000998664 0.730796 -0.000402742)
(0.0408464 0.609169 -0.000385279)
(-0.00146513 0.979116 -0.000583492)
(0.0318683 0.481808 -0.000628295)
(-0.034582 0.866517 -0.000688454)
(1.10303 0.741864 -0.000327166)
(-0.0468585 1.16181 -0.000676928)
(0.11027 0.652171 -0.00143012)
(0.157552 0.616722 -0.000672344)
(0.118315 0.462521 -0.000253608)
(0.109184 0.398258 -0.000194314)
(0.154682 0.564914 -0.000297867)
(0.0636252 0.229471 -0.000109339)
(0.0870186 0.314372 -0.000231804)
(-0.0130638 -0.147211 -4.88401e-06)
(-0.0167938 -0.234718 -3.06884e-07)
(-0.0103177 -0.0795138 1.18656e-06)
(-0.00833364 -0.0607357 4.57746e-08)
(0.000302551 0.0002217 0.532418)
(-0.0129595 -0.101896 0.000163819)
(0.000276235 0.000213798 0.506151)
(-0.014407 -0.109698 0.00018329)
(0.000561531 0.00038938 0.576554)
(-0.0130043 -0.129713 0.000273393)
(0.000784813 0.000840354 0.577835)
(-0.0121103 -0.139287 0.0010782)
(0.052951 0.249661 -1.21328e-05)
(0.0394556 0.179446 -3.01225e-06)
(0.0397688 0.180889 -8.64655e-06)
(0.0467304 0.203522 -6.02774e-06)
(0.0460157 0.202698 -5.36326e-06)
(0.0462552 0.203759 -8.63953e-06)
(0.0670049 0.245744 -1.07823e-05)
(0.0242851 0.120795 -6.30611e-06)
(0.021741 0.110317 -5.36132e-06)
(0.0355577 0.128985 -3.41921e-06)
(0.031209 0.109809 -3.03767e-06)
(-0.0063414 -0.0290349 0.000194826)
(-0.00539127 -0.0256851 0.000225912)
(0.000245463 0.000148201 0.322586)
(0.000251972 0.000126787 0.316026)
(0.000245117 0.000121669 0.311774)
(0.000280464 0.000145375 0.359097)
(0.0947483 0.322743 0.000499985)
(0.161369 0.564046 0.00422728)
(-4.25091e-05 0.000228883 0.339658)
(0.000182853 -0.000150796 0.308082)
(0.000119871 6.53142e-05 0.109131)
(0.0826686 0.290121 0.000249894)
(0.286104 0.664626 -1.29822e-06)
(0.168115 0.59267 6.70297e-05)
(0.166426 0.586751 -1.43961e-05)
(0.0816357 0.381335 -1.52526e-05)
(0.0804302 0.375698 -2.18667e-05)
(0.141224 0.674705 -3.18257e-05)
(0.0782132 0.348335 -1.55731e-05)
(0.0821503 0.372946 -9.68373e-06)
(0.0824627 0.374266 -1.92943e-05)
(0.0773364 0.344561 -3.72984e-06)
(-0.00446398 -0.0315673 -8.82501e-07)
(-0.00573526 -0.0403644 -1.04977e-06)
(0.162677 0.861924 -1.82272e-05)
(0.267094 0.460522 0.0115118)
(0.000553695 0.00217507 0.863851)
(0.000347737 0.000919588 0.412664)
(0.0489304 0.142283 0.0001993)
(-0.0118411 -0.0738217 0.000205998)
(-0.0118599 -0.0748144 0.000349685)
(0.00063447 0.000864206 0.676786)
(0.000188001 -0.000127039 0.311488)
(0.096661 0.495888 0.00110593)
(0.000325489 -0.000240203 0.37518)
(0.14058 0.738502 0.00561429)
(0.000377033 0.000272057 0.347625)
(0.000234699 0.000129483 0.329468)
(-0.000518059 -0.000225408 0.352306)
(6.82357e-05 0.000152887 0.112997)
(0.0809227 0.386472 -3.31817e-05)
(0.103636 0.481249 0.00100384)
(0.000345402 -6.34328e-05 0.206717)
(9.31859e-05 0.000260075 0.108389)
(0.170344 0.715593 0.00212617)
(0.0847583 0.315061 -1.06854e-05)
(0.0807506 0.309117 -1.81365e-05)
(0.0964143 0.393038 -1.90879e-05)
(0.0676286 0.272382 -4.97929e-06)
(-0.89544 2.86276 -0.0219949)
(-0.0653245 1.60089 -6.81025e-05)
(-0.198211 1.85276 0.000796249)
(0.0620409 0.934291 -5.57546e-05)
(0.0497146 1.06317 -3.91417e-05)
(-0.00272264 1.36615 -3.93815e-05)
(0.0304899 1.14624 -1.37506e-05)
(0.10242 1.12421 -6.8965e-06)
(0.12868 1.66163 -5.33658e-05)
(0.121282 1.56548 -2.78314e-05)
(0.102338 1.12377 -4.53571e-05)
(0.119196 1.21761 -2.61438e-05)
(0.127022 1.18203 1.53756e-05)
(0.12976 1.20772 -5.81088e-05)
(0.116761 1.19244 1.54452e-05)
(0.0637374 0.26419 -8.6122e-06)
(0.0582481 0.231208 -1.05936e-05)
(0.0932494 0.366505 -1.40863e-05)
(0.110251 0.746913 -2.22066e-05)
(0.103907 0.654404 -2.58823e-05)
(-0.000640945 -0.000661601 0.566353)
(0.0005051 0.00146675 0.892964)
(0.001382 0.00462366 0.000134676)
(-1.25619e-05 0.00202114 0.738881)
(0.00245036 0.00849516 0.000133601)
(0.000193388 0.00955417 0.273576)
(-0.0605578 0.581761 -0.000503876)
(0.00707467 -0.00458043 1.74757)
(0.000208646 0.000182667 0.303985)
(0.0142265 0.518196 -0.000286264)
(0.000603222 -0.000192375 0.245095)
(0.0233299 0.48724 -0.000130837)
(0.0615962 0.529508 -0.000279741)
(0.0613534 0.519885 -0.000244359)
(0.000255342 0.00015791 0.244601)
(0.000278508 0.000171225 0.269005)
(0.0577269 0.532117 -0.000182254)
(0.0524477 0.528592 0.000102908)
(0.0474244 0.518606 0.00142281)
(1.77816e-05 -0.000961657 0.222967)
(-0.0191922 -0.105302 0.00105685)
(-9.22034e-05 0.000199877 0.5016)
(0.092094 0.511836 0.000146141)
(0.000241891 0.000119495 0.320942)
(0.000245321 0.000121455 0.322505)
(0.477109 -0.190106 -0.00395929)
(0.228615 0.216137 0.00249111)
(0.000169043 2.09783e-05 0.081864)
(-0.052597 -0.517322 0.000223285)
(-0.0689736 -0.557224 0.000246681)
(-0.0547647 -0.537911 0.000286281)
(-0.0692168 -0.559137 0.000251988)
(-0.0736507 -0.594166 0.000323229)
(-0.0582025 -0.57096 0.000337834)
(-0.0815056 -0.656526 0.000396439)
(0.179723 0.777491 -0.000576472)
(0.450955 2.20732 -0.00145959)
(0.183286 0.793345 -0.000582365)
(0.43016 2.10494 -0.00140703)
(-0.0653075 -0.528675 8.39107e-05)
(-0.0414416 -0.258384 0.000188392)
(-0.104089 -0.836362 0.000560505)
(-0.0472064 -0.293865 0.000217164)
(1.39176 0.922145 -0.000271598)
(1.38999 0.921004 -0.000152904)
(0.228882 0.994054 -9.6446e-05)
(0.648623 3.18257 -0.000347178)
(0.603967 2.96354 -0.000256444)
(0.244202 1.06029 -0.000114021)
(0.38716 2.29493 -0.00025126)
(0.455436 2.69918 -0.000356221)
(-0.000204446 -0.00458768 1.51103e-06)
(0.000372154 -0.00163978 6.01388e-07)
(0.0230548 0.130538 -2.12078e-05)
(0.0236085 0.133188 -1.50715e-05)
(0.0497831 0.215961 -2.4228e-05)
(0.0366077 0.166207 -1.76053e-05)
(0.0598404 0.260348 -6.78932e-05)
(0.0284499 0.128251 2.10117e-05)
(-0.10806 -0.869033 0.000637275)
(-0.0687464 -0.499256 0.000361475)
(0.0181216 0.0852195 6.7084e-05)
(-0.0104804 -0.0582272 0.000101451)
(0.0639733 0.233203 -0.000182439)
(0.0720101 0.262466 -0.000181822)
(0.0347802 0.125326 -9.97732e-05)
(0.0402578 0.145056 -0.000100807)
(0.282848 1.27988 -0.000121674)
(0.170337 0.739045 4.5978e-05)
(0.320007 1.51333 -0.000202531)
(0.154642 0.775988 -4.82065e-05)
(-0.0185776 -0.156443 0.000154664)
(-0.0421203 -0.312472 0.00026901)
(-0.006848 -0.050066 -1.77143e-05)
(0.00125583 0.00260682 -1.00657e-06)
(-0.0176914 -0.121477 1.17361e-05)
(-0.0234447 -0.164373 5.90894e-05)
(0.0972197 0.397509 0.000177846)
(0.0841523 0.312806 -3.70897e-05)
(0.0842691 0.313241 -2.49096e-05)
(0.108738 0.446087 -0.000630625)
(0.166056 0.72937 -0.000114342)
(0.142639 0.657319 5.61575e-05)
(0.173481 0.762525 -8.08134e-05)
(0.18262 0.851669 5.82915e-05)
(-0.00252927 1.24056 -7.91958e-05)
(0.0657522 0.992746 -0.000147375)
(-0.00235196 1.10908 -0.000115542)
(0.0654877 0.989522 -6.82844e-05)
(-0.0619319 1.51408 -8.29997e-05)
(1.39005 0.922399 -0.000360411)
(-0.0573687 1.40359 -0.000164146)
(0.479409 4.11157 -0.00129493)
(0.0916332 0.3601 -1.27253e-05)
(0.088354 0.347078 -2.39867e-05)
(0.0651223 0.238726 3.33862e-06)
(0.0658281 0.241414 -1.36731e-05)
(0.0575375 0.301627 -6.30524e-05)
(0.185337 0.914872 -0.00097653)
(0.0224584 0.125271 -5.24162e-05)
(0.0480225 0.257737 -2.48515e-05)
(0.744561 4.65881 0.00288526)
(0.370321 2.47441 0.000777314)
(0.0333283 0.120842 -2.58971e-06)
(0.0350353 0.127087 -8.95125e-06)
(1.25874 0.836116 0.0010607)
(0.0904705 0.626017 -0.000451244)
(0.254165 0.238373 -2.55699e-05)
(0.498485 -0.206729 -5.08447e-05)
(0.240952 0.226686 -0.000105534)
(0.517507 -0.214985 -0.000318555)
(0.0660652 0.242286 -1.19761e-05)
(0.03118 0.109676 -8.2859e-06)
(0.0352014 0.127697 -3.78346e-06)
(0.285926 0.664199 -1.43099e-05)
(0.275873 0.809767 -3.80978e-05)
(0.000454045 0.00106594 0.728864)
(0.000158972 0.00028204 0.363126)
(0.000321016 -0.000244058 0.384564)
(-0.198573 1.84122 -0.00014892)
(-0.0652366 1.59557 -5.40973e-05)
(1.3852 0.924268 -0.00143267)
(0.0285679 0.0270061 1.73719e-05)
(0.352174 -0.14473 0.000128304)
(0.351823 -0.143025 0.000565523)
(0.0304049 0.0287082 6.45345e-06)
(0.000234742 -0.000128498 0.544595)
(0.000200836 -8.58239e-05 0.380823)
(0.000207155 0.000110769 0.342031)
(0.000384041 0.000269421 0.365869)
(-0.0890258 -0.716385 0.000452451)
(1.3594 0.899937 -0.000663901)
(1.34561 0.890777 -0.000649436)
(1.31908 0.873178 -0.000627533)
(1.34458 0.89009 -0.000648139)
(0.399543 1.95399 -0.00131695)
(0.176398 0.762466 -0.000564098)
(0.178364 0.771471 -0.000572144)
(0.422296 2.06627 -0.0013884)
(0.271631 1.60404 -0.00105724)
(0.290562 1.71617 -0.00109486)
(-0.0234945 -0.138914 0.000116244)
(-0.0303237 -0.178399 0.000147647)
(-0.0547411 -0.340385 0.000263866)
(-0.0492572 -0.306488 0.000229183)
(-0.040082 -0.234983 0.000202023)
(-0.0328825 -0.193195 0.000160948)
(0.254519 2.16355 -0.00133908)
(0.241459 2.05197 -0.00139359)
(0.0249944 0.0922095 -1.38241e-05)
(0.0235869 0.0952302 -3.66774e-05)
(0.0351567 0.14287 0.000162336)
(0.0330158 0.122038 -4.3981e-05)
(0.00182701 0.00701919 6.7309e-05)
(0.0270321 0.11553 9.38607e-05)
(0.0362019 0.156214 2.68361e-05)
(0.0216061 0.0960191 8.48748e-05)
(0.0409654 0.151604 -7.09381e-05)
(0.0452197 0.1843 0.000167884)
(0.035288 0.13049 -5.21773e-05)
(0.0427152 0.636761 -0.000389503)
(-0.00154531 1.02226 -0.000608745)
(-0.00172735 1.12677 -0.000668992)
(0.0470495 0.701622 -0.00043354)
(-0.0542228 1.34318 -0.000790588)
(1.31008 0.867185 -0.00061269)
(-0.0567035 1.40427 -0.000830022)
(-0.0486796 1.20666 -0.000706985)
(-0.0530247 1.3137 -0.00077228)
(1.307 0.865135 -0.000612135)
(-0.00177887 1.15518 -0.000686272)
(0.0513861 0.767411 -0.000467513)
(-0.00188111 1.21172 -0.00072221)
(0.0483689 0.721789 -0.000417595)
(0.22769 1.34383 -0.000852838)
(0.412663 2.56803 -0.00368078)
(0.238579 1.58782 -0.00104028)
(0.248213 1.46507 -0.00100258)
(0.40729 2.53871 -0.00161319)
(0.379404 2.36384 -0.00154954)
(0.196447 1.30583 -0.00165177)
(-0.0806515 -0.591617 5.66856e-05)
(-0.101266 -0.814924 0.000563473)
(-0.0659661 -0.437719 0.000330894)
(-0.0561393 -0.349687 0.000304192)
(-0.0794598 -0.532802 0.000317498)
(-0.0525576 -0.328268 0.000302021)
(-0.0234373 -0.130469 0.000149973)
(-0.043908 -0.257892 0.000259867)
(0.00491597 0.0178881 0.000232867)
(-0.0466083 -0.275085 0.000245027)
(0.232374 1.04381 -0.000771264)
(0.180562 0.779791 -0.000546328)
(0.239167 1.12651 -0.000778956)
(0.178492 0.771106 -0.000551269)
(0.226394 1.02029 -0.000722102)
(0.24268 1.14178 -0.00111049)
(0.369567 1.80536 -0.00132838)
(0.106161 0.414929 -0.000241314)
(0.0898758 0.351198 -0.000236503)
(0.0960065 0.350092 -0.000189199)
(0.0757564 0.276127 -0.000181217)
(0.0872789 0.341083 -0.000243372)
(0.0812601 0.317628 -0.000242645)
(0.0558284 0.201287 -0.000105629)
(0.0428221 0.154301 -0.000100997)
(0.122945 0.284899 -0.000113147)
(0.104244 0.241454 -6.14074e-05)
(-0.0206347 -0.156284 0.000150065)
(-0.0181084 -0.129441 0.000133167)
(0.0816665 0.417232 -0.000581057)
(0.0862706 0.430444 -0.000277741)
(0.124751 0.658263 -0.00107472)
(-0.0191678 -0.189281 8.77767e-05)
(-0.0197653 -0.180069 0.0001603)
(-0.0170919 -0.187888 -0.000154843)
(-0.0210806 -0.292135 0.0001786)
(0.0775572 0.371068 -0.000391294)
(0.0821344 0.409848 -0.00025254)
(-0.00415676 -0.0175544 6.41687e-05)
(0.00600946 0.0231626 9.85244e-05)
(-0.000711926 -0.00351602 7.13599e-05)
(0.0127669 0.0467434 4.29966e-05)
(0.0176937 0.647242 -0.000375077)
(-0.00120448 0.84432 -0.000525143)
(0.0269396 0.567101 -0.000400575)
(0.0361554 0.5404 -0.000421349)
(-0.104962 0.999271 -0.00204077)
(-0.0408756 1.01623 -0.000664544)
(1.22245 0.816253 0.00254778)
(-0.458239 1.49185 -0.000627364)
(-0.0447312 1.10999 -0.000668442)
(-0.140307 1.30731 -0.000726135)
(-0.0118524 -0.0619124 0.00010334)
(-0.00866477 -0.0445785 8.52018e-05)
(-0.0104668 -0.053597 9.72945e-05)
(-0.0100227 -0.0525614 9.23063e-05)
(-0.0248151 -0.136161 2.65281e-05)
(0.000630087 0.000507574 0.387979)
(0.0586171 0.394134 -0.000270321)
(0.0924886 0.640085 -0.000557323)
(0.0606945 0.407833 -0.000345407)
(0.127389 0.464815 -0.000209469)
(0.154977 0.565764 -0.000270517)
(0.0735412 0.265324 -0.000115267)
(0.0623715 0.218126 -0.000102526)
(0.0821714 0.287922 -0.000318717)
(0.0899673 0.324792 -0.000165264)
(0.448034 -0.187264 -0.00281507)
(0.217497 0.199705 0.000839862)
(0.265206 0.246645 0.000173299)
(0.521666 -0.217674 -0.00114624)
(0.231618 1.00384 -0.000654324)
(0.574474 2.8148 -0.00173665)
(0.223691 0.969655 -0.000576154)
(0.552125 2.70497 -0.00172552)
(-0.0661508 -0.535251 0.000120016)
(-0.00143107 -0.0121031 5.5332e-06)
(-0.00092673 -0.00899533 3.83064e-06)
(0.252174 1.09484 -0.000174502)
(0.651101 3.19396 -0.000852258)
(0.261158 1.13355 -0.000253853)
(-0.0605977 -0.440296 0.000294322)
(0.178756 0.785978 -0.000139486)
(0.14529 0.670511 -0.000128783)
(0.178844 0.786362 -0.000158639)
(0.145286 0.670453 -0.000117434)
(0.0725731 0.266105 -1.85146e-05)
(0.07541 0.276466 4.69948e-06)
(-0.032784 -0.240637 3.56689e-05)
(0.164615 0.814787 -0.000150304)
(0.0648325 0.340985 -6.02994e-05)
(0.0442036 0.160334 -6.86281e-06)
(0.0405735 0.147123 8.21449e-06)
(1.39042 0.921429 -0.000179674)
(0.0238875 0.0224375 -5.49402e-06)
(0.359848 -0.149317 -9.1281e-06)
(0.0230622 0.0216527 -5.41403e-06)
(0.35415 -0.146892 -1.21815e-05)
(-0.0200649 -0.126817 8.78576e-05)
(-0.0226251 -0.142575 9.98125e-05)
(-0.039357 -0.245555 0.000178436)
(-0.0939569 -0.755652 0.000486746)
(-0.0343345 -0.214643 0.000154229)
(0.185254 0.802031 -0.000588185)
(0.196847 0.852964 -0.000608205)
(0.102816 0.449799 -0.000232191)
(0.0773233 0.354799 -0.000181269)
(0.106366 0.465447 -0.000244664)
(0.0739599 0.33923 -0.000168252)
(0.0436262 0.198811 -5.07267e-05)
(0.0684401 0.298285 -0.000101671)
(0.0753427 0.32872 -0.000129642)
(0.0495061 0.226073 -7.67954e-05)
(0.0581666 0.21272 -0.000197729)
(0.0565332 0.206609 -0.000191334)
(0.0621795 0.226691 -0.000182673)
(0.0583107 0.212683 -0.000183059)
(0.014647 0.0749364 -1.71597e-05)
(0.0691736 0.339302 -0.00015618)
(-0.0681859 -0.495053 0.000351461)
(0.0257333 0.123305 2.45855e-05)
(-0.00666205 -0.0378533 7.75956e-05)
(0.0328649 0.158869 -1.04141e-05)
(0.0315601 0.114141 -0.000111747)
(0.0301874 0.109092 -0.000106581)
(0.0335582 0.120935 -9.97353e-05)
(0.030963 0.111635 -9.9762e-05)
(1.32207 0.875131 -0.000624516)
(1.28942 0.853532 -0.000530355)
(0.13115 0.123527 -9.27544e-05)
(0.358714 -0.148966 6.73926e-05)
(0.36927 -0.153349 7.111e-05)
(0.118799 0.111883 -8.78123e-05)
(0.477004 -0.197846 3.98091e-05)
(0.224428 0.211347 -0.000124335)
(0.210026 0.197851 -0.000123336)
(0.456966 -0.189642 5.31825e-05)
(-4.48345e-05 -0.0223281 6.83382e-06)
(-2.16578e-05 -0.0205103 6.21511e-06)
(-0.0524583 -0.516235 0.000188848)
(-6.03434e-05 -0.0232822 1.07841e-05)
(-0.000138359 -0.0291618 9.58429e-06)
(-0.0683694 -0.552604 0.000208015)
(-0.0535112 -0.525932 0.000259476)
(-0.000100729 -0.0260536 1.68351e-05)
(-5.34862e-06 -0.0191417 1.13811e-05)
(-0.0706522 -0.57043 0.000284688)
(-0.0710101 -0.573266 0.000289261)
(-1.90418e-05 -0.0198719 1.70018e-05)
(-0.0568026 -0.557502 0.00031703)
(-0.000100723 -0.025939 1.88546e-05)
(-0.0780357 -0.628973 0.000365101)
(1.37625 0.911188 -0.000685372)
(1.37465 0.910114 -0.000683029)
(1.37223 0.908484 -0.00067995)
(1.37681 0.911536 -0.000683756)
(0.205573 0.891242 -0.000589299)
(0.524572 2.5699 -0.00166231)
(0.54204 2.65565 -0.00169202)
(0.190094 0.823971 -0.000572091)
(0.180561 0.781252 -0.000576821)
(0.237901 1.07314 -0.000758016)
(0.26905 1.26868 -0.000858285)
(0.444377 2.17493 -0.00144216)
(0.182035 0.787779 -0.0005795)
(0.245249 1.10672 -0.000773075)
(0.25833 1.21775 -0.000833193)
(0.4368 2.13764 -0.00142964)
(1.38889 0.920127 -0.000437398)
(1.39164 0.922008 -0.000375719)
(1.3927 0.922759 -0.000286198)
(1.39333 0.923135 -0.000365674)
(0.481966 2.85651 -0.000435485)
(0.460848 2.73161 -0.000687115)
(-0.000333661 -0.00535294 1.72419e-06)
(-0.0658809 -0.53313 0.000110721)
(-0.000719124 -0.00771602 3.29758e-06)
(0.0218818 0.123741 -3.47409e-05)
(0.0223825 0.126658 -3.05033e-05)
(0.0229431 0.129916 -2.34771e-05)
(0.0226015 0.127932 -2.8876e-05)
(0.239765 1.0409 -0.000131838)
(0.24066 1.04481 -0.000139752)
(0.698926 3.42956 -0.000659177)
(-0.0547017 -0.36331 0.000250973)
(-0.0432595 -0.269573 0.000197099)
(-0.0641836 -0.466117 0.00031726)
(-0.0453121 -0.282204 0.000207455)
(-0.0594378 -0.394448 0.000277543)
(0.465941 3.98156 -0.00091683)
(0.494239 4.22592 -0.000823471)
(0.0841316 0.312723 -4.2332e-05)
(0.108821 0.44645 0.000514287)
(0.108958 0.447012 -0.000647938)
(0.0840952 0.312579 -5.45874e-05)
(0.141674 0.65317 -0.000121958)
(0.177142 0.778771 -0.000101367)
(0.178219 0.783585 -0.000123127)
(0.144683 0.667529 -0.0001063)
(0.108966 0.447038 0.000490891)
(0.0840192 0.312283 -6.95267e-05)
(0.108943 0.446926 -0.000669965)
(0.0840835 0.312533 -5.88579e-05)
(0.0668896 1.00976 -0.000146886)
(-0.00237298 1.14318 -0.000122902)
(-0.00273817 1.3382 -0.000215635)
(0.0725214 1.09287 -0.000177215)
(-0.0651847 1.59551 -0.000296594)
(1.39077 0.921504 -0.000229309)
(-0.0683583 1.67348 -0.000381723)
(-0.0581986 1.42406 -0.000179829)
(-0.0631421 1.54545 -0.000262592)
(1.38985 0.920899 -0.000207566)
(-0.0028407 1.3904 -0.000249044)
(0.0654319 0.985566 -0.000244293)
(-0.00297388 1.45846 -0.000335332)
(0.0732575 1.10362 -0.000197876)
(0.307051 1.3897 -0.000103034)
(0.233434 1.01374 -9.79973e-05)
(0.635701 3.11924 -0.000254959)
(0.386508 1.82774 -0.000193184)
(0.335262 1.58576 -7.6681e-05)
(0.624575 3.06472 -0.000305134)
(0.242912 1.05479 -0.000105247)
(0.345646 1.56394 -0.000155362)
(0.0862327 0.338736 -2.4898e-05)
(0.0754012 0.296257 -3.2102e-05)
(0.0678107 0.248523 1.50169e-05)
(0.074426 0.272908 6.14667e-06)
(0.0736448 0.289315 -4.17555e-05)
(0.650554 4.06946 -0.000788508)
(0.403115 2.38901 -0.000302597)
(0.663225 4.14894 -0.000598858)
(0.422228 2.82146 -0.000556776)
(0.427718 2.85875 -0.00043518)
(0.422895 2.50646 -0.000262209)
(-0.0308108 -0.226881 2.64972e-05)
(-0.0191916 -0.130126 2.0593e-05)
(-3.43031e-05 -0.00361995 1.18119e-06)
(-0.0183025 -0.124888 1.63514e-05)
(4.48101e-05 -0.00331322 1.20485e-06)
(0.0641703 0.336994 -3.68046e-05)
(0.162295 0.802492 -9.05011e-05)
(0.164642 0.814633 -0.000119314)
(0.0491048 0.264637 -4.49708e-05)
(0.0231957 0.131285 -1.90832e-05)
(0.049205 0.264683 -3.09941e-05)
(0.0232572 0.131477 -1.6375e-05)
(0.0338313 0.122619 5.2436e-06)
(0.0393699 0.142781 8.55434e-06)
(0.0661846 0.241247 -0.000182605)
(0.0686705 0.250291 -0.000182093)
(0.0321792 0.112423 -9.02267e-05)
(0.0362859 0.130745 -0.000100095)
(0.0381504 0.133287 -9.15399e-05)
(0.0379941 0.136895 -0.000100119)
(0.275427 0.808495 -0.000104253)
(0.27569 0.809227 -8.15452e-05)
(0.285796 0.663931 -7.06213e-05)
(0.285896 0.664165 -7.10842e-05)
(-0.195019 1.80808 -0.000138395)
(-0.0596621 1.45973 -0.000148583)
(1.39065 0.921965 -0.000232279)
(-0.831297 2.70416 -0.000276991)
(-0.0579753 1.41842 -0.000158076)
(-0.186995 1.73301 -0.000204678)
(0.0645329 0.236555 -6.03174e-06)
(0.0654681 0.24005 -1.20515e-05)
(0.0335597 0.121672 -6.13968e-06)
(0.0281998 0.0991457 -4.94563e-06)
(0.0307436 0.108125 -9.37017e-06)
(0.0345655 0.125356 -9.25855e-06)
(0.420267 2.48565 -0.00158675)
(0.391178 2.31329 -0.00150605)
(0.000879786 0.00204979 1.18767e-05)
(-0.00201092 -0.0146729 2.38854e-05)
(-0.0269892 -0.169437 0.000120175)
(-0.0237636 -0.149582 0.000104815)
(-0.00694975 -0.0432391 4.46972e-05)
(-0.00330934 -0.0221828 2.90141e-05)
(1.3579 0.898947 -0.000663824)
(1.3673 0.905194 -0.00067245)
(1.37349 0.909315 -0.000680384)
(1.36784 0.905554 -0.000673226)
(-0.0210456 -0.124752 0.000105536)
(-0.0152931 -0.091488 8.00822e-05)
(0.352281 2.08221 -0.00132702)
(0.379106 2.24165 -0.00145838)
(-0.092482 -0.743905 0.000476749)
(-0.0284395 -0.178365 0.000126662)
(-0.0325656 -0.203756 0.000146055)
(-0.00860805 -0.0528304 5.14454e-05)
(-0.0132519 -0.0796851 7.14351e-05)
(0.198099 0.85842 -0.000595436)
(0.517274 2.53407 -0.0016612)
(0.190869 0.827252 -0.000574789)
(0.482295 2.36198 -0.0015759)
(0.284123 2.4161 -0.00151413)
(0.292437 2.48721 -0.00156953)
(0.06574 0.268655 0.000203094)
(0.0531216 0.196822 -0.000107968)
(0.055935 0.207287 -0.000116412)
(0.0618243 0.252558 -0.00044927)
(0.0978451 0.427896 -0.000214418)
(0.0653931 0.299596 -0.00013746)
(0.093432 0.408451 -0.000197592)
(0.0694577 0.318397 -0.000153079)
(0.059226 0.21953 -0.000126093)
(0.0568743 0.210781 -0.000119274)
(0.0705172 0.288298 0.000212378)
(-0.00217956 1.37266 -0.000822123)
(0.057648 0.861466 -0.000523239)
(0.0589438 0.88094 -0.000534523)
(-0.00212929 1.34599 -0.000805434)
(-0.0638683 1.58052 -0.000941453)
(1.35585 0.89757 -0.000657981)
(-0.0645868 1.5981 -0.000955003)
(-0.00219731 1.38183 -0.000827933)
(0.0603926 0.902748 -0.000548627)
(-0.00222665 1.39499 -0.000838206)
(0.0593697 0.887347 -0.000538492)
(-0.0634408 1.57002 -0.000934604)
(1.353 0.895681 -0.000655413)
(-0.062259 1.54097 -0.000915949)
(0.318194 2.70705 -0.00167631)
(0.312346 2.65707 -0.0016492)
(0.0427668 0.158306 -7.67718e-05)
(0.0470584 0.174269 -8.97015e-05)
(0.0553288 0.225858 -0.000392799)
(0.0519123 0.192323 -0.000104522)
(0.060013 0.245113 0.000191793)
(0.048512 0.179675 -9.41026e-05)
(0.0820269 0.358183 -0.000156201)
(0.0600048 0.274669 -0.000117941)
(0.0872236 0.381091 -0.000175867)
(0.0552859 0.252831 -9.93498e-05)
(-0.0573645 1.42047 -0.000840291)
(-0.059623 1.47615 -0.000873047)
(1.33191 0.881688 -0.000635756)
(0.0522186 0.77995 -0.000475218)
(-0.00191334 1.22747 -0.000732246)
(-0.00201079 1.2827 -0.00076445)
(0.0545545 0.814993 -0.000495225)
(-0.00204031 1.29888 -0.000774623)
(0.0570927 0.853101 -0.000518214)
(0.055353 0.826977 -0.000502194)
(-0.00210616 1.33456 -0.000798327)
(-0.0602859 1.49247 -0.000883443)
(1.33737 0.885308 -0.000639858)
(-0.0617847 1.52934 -0.000908777)
(0.0756925 0.296402 -0.000245745)
(0.0759369 0.29722 -0.000246075)
(0.0559135 0.204155 -0.000186387)
(0.0561536 0.205174 -0.000189682)
(0.0759079 0.29743 -0.000245865)
(0.242176 1.14098 -0.000792129)
(0.406803 1.98987 -0.00136928)
(0.227581 1.02586 -0.000729893)
(0.176418 0.762732 -0.000572653)
(0.177461 0.767416 -0.000572785)
(0.234888 1.05939 -0.000750503)
(0.415134 2.03099 -0.00136524)
(0.254037 1.19737 -0.000823741)
(0.0773618 0.302553 -0.000244107)
(0.0769569 0.301019 -0.000244889)
(0.075956 0.297245 -0.000245525)
(0.0559835 0.204363 -0.000185235)
(0.0575035 0.209779 -0.000183587)
(0.264604 1.76151 -0.00112443)
(0.422212 2.63218 -0.00169552)
(0.277923 1.64126 -0.00105911)
(0.284553 1.68056 -0.00108204)
(0.452881 2.82388 -0.00178971)
(0.443114 2.76292 -0.00175897)
(0.271285 1.80613 -0.00113962)
(-0.000942123 -0.00785708 3.55044e-05)
(-0.025589 -0.151026 0.000125475)
(0.0528317 0.258131 -9.31687e-05)
(0.00655977 0.0321859 1.60541e-05)
(-0.0280598 -0.165312 0.000136853)
(-0.00862921 -0.0496269 6.83778e-05)
(-0.0651448 -0.43211 0.000318454)
(-0.0529631 -0.329345 0.000251694)
(-0.0653617 -0.474593 0.000326621)
(-0.0511536 -0.318168 0.000238969)
(-0.0610518 -0.405068 0.000288343)
(0.46419 2.8946 -0.00182811)
(0.473626 2.95361 -0.00185813)
(0.294924 1.96407 -0.001223)
(0.288905 1.92385 -0.00120107)
(-0.0205448 -0.114534 0.000127385)
(-0.0376599 -0.220876 0.000185789)
(0.0461602 0.224987 -6.63346e-05)
(0.00323631 0.0146143 2.99933e-05)
(0.0399086 0.193914 -4.18141e-05)
(-0.035238 -0.20683 0.000172004)
(-0.0116732 -0.0661708 8.18776e-05)
(0.0294799 0.106417 -0.000102274)
(0.0298504 0.107844 -0.000105191)
(0.0295004 0.106463 -0.000101413)
(0.0304243 0.109716 -0.000100066)
(0.118511 0.346875 -0.000151245)
(0.144363 0.422759 -0.00021891)
(0.192813 0.447132 -0.000266578)
(0.187483 0.434761 -0.000256839)
(0.160001 0.37098 -0.000207333)
(0.168183 0.389976 -0.000225896)
(0.151357 0.443295 -0.000236771)
(-0.604092 1.96818 -0.00110237)
(1.31686 0.871679 -0.000617246)
(-0.0559782 1.38642 -0.000817531)
(-0.16816 1.56589 -0.000914566)
(-0.576582 1.87873 -0.00111235)
(-0.50662 1.65017 -0.000827366)
(-0.524795 1.70973 -0.000961575)
(-0.145493 1.35555 -0.000786017)
(-0.0501808 1.24365 -0.00072715)
(1.29982 0.86036 -0.000582569)
(-0.559358 1.82275 -0.00102536)
(0.0879994 0.320819 -0.000181456)
(0.0810304 0.295391 -0.000183846)
(0.144832 0.136426 -9.80895e-05)
(0.398048 -0.165302 8.02486e-05)
(0.382728 -0.158938 7.56772e-05)
(0.159031 0.149814 -0.000101741)
(0.0545465 0.190702 -9.66091e-05)
(0.05083 0.183209 -0.000101172)
(0.0462458 0.166661 -0.00010242)
(0.040929 0.143002 -9.16286e-05)
(0.190941 0.17989 -0.000114898)
(0.416092 -0.172786 7.47922e-05)
(0.434671 -0.180465 7.04399e-05)
(0.175221 0.165077 -0.000106288)
(0.634923 3.11468 -0.000858497)
(0.255567 1.10931 -0.00026528)
(0.236262 1.02573 -0.000275931)
(0.612277 3.00389 -0.000939958)
(0.208795 0.905709 -0.000413705)
(0.643096 3.15311 -0.00154673)
(0.204342 0.886501 -0.000420585)
(0.600584 2.94411 -0.0013517)
(0.191264 0.82919 -0.000412184)
(0.572443 2.80536 -0.00154644)
(0.201668 0.874606 -0.000490182)
(0.625934 3.06734 -0.00155578)
(-0.0666643 -0.539289 0.000137042)
(-0.0339097 -0.248582 6.97503e-05)
(-0.0464163 -0.338196 0.000208814)