/*--------------------------------*- C++ -*----------------------------------*\
| =========                 |                                                 |
| \\      /  F ield         | OpenFOAM: The Open Source CFD Toolbox           |
|  \\    /   O peration     | Version:  2306                                  |
|   \\  /    A nd           | Website:  www.openfoam.com                      |
|    \\/     M anipulation  |                                                 |
\*---------------------------------------------------------------------------*/
FoamFile
{
    version     2.0;
    format      ascii;
    arch        "LSB;label=32;scalar=64";
    class       volScalarField;
    location    "0.8";
    object      p;
}
// * * * * * * * * * * * * * * * * * * * * * * * * * * * * * * * * * * * * * //

dimensions      [0 2 -2 0 0 0 0];

internalField   nonuniform List<scalar> 
111542
(
60.2088
61.5121
64.6249
69.7277
76.912
86.4039
98.3797
112.889
129.459
146.687
162.025
171.462
170.911
159.069
138.859
115.894
94.1377
75.1879
59.3306
46.5174
36.392
28.6177
22.7838
18.3671
15.0231
12.468
10.415
8.82378
7.63833
6.72697
6.00372
5.41017
4.957
4.57266
4.20484
3.81132
3.33867
2.78228
2.04282
1.03344
59.1478
60.4117
63.4947
68.5407
75.7221
85.3688
97.8683
113.49
132.085
152.598
172.351
185.779
185.254
169.367
143.777
116.996
93.1784
73.1433
56.8382
43.9848
34.1148
26.6738
21.1146
17.0406
13.9958
11.6418
9.7997
8.37958
7.28921
6.43333
5.74631
5.18701
4.72996
4.33444
3.96031
3.56961
3.1192
2.5646
1.8377
0.886449
57.0457
58.2441
61.1896
66.0608
73.1389
82.9457
96.2071
113.748
136.245
163.552
192.347
214.043
214.358
189.221
153.237
119.953
92.227
69.9874
52.7493
39.7466
30.1436
23.3794
18.5711
15.0516
12.1828
9.85564
8.10265
6.8276
5.88672
5.17569
4.63185
4.21225
3.88126
3.60526
3.34934
3.07702
2.74479
2.29735
1.66412
0.774273
53.9561
55.03
57.6879
62.1539
68.8191
78.4205
92.1202
111.634
139.386
178.634
213.859
256.79
262.643
221.943
169.877
129.282
95.813
70.1039
51.2192
37.5211
23.4229
16.9758
14.7111
13.4302
11.4857
9.43838
7.79305
6.54646
5.56987
4.78892
4.1682
3.67728
3.28621
2.96409
2.68178
2.40722
2.09607
1.68698
1.08843
0.187741
49.9911
50.8597
53.0278
56.7336
62.4194
70.9366
83.7405
103.27
133.571
178.504
255.752
342.255
366.095
258.092
173.654
124.843
84.7952
57.4724
39.4959
28.0418
20.6874
4.656
4.25229
5.19319
4.80803
4.17095
3.7154
3.37209
3.0725
2.81318
2.59954
2.42598
2.28435
2.16214
2.04861
1.92868
1.77165
1.52332
1.06335
0.0893998
45.348
45.923
47.3756
49.9013
53.8765
60.0386
69.7232
85.3958
111.841
166.695
260.645
455.836
620.885
247.668
174.681
116.021
68.1378
41.0373
25.0791
15.6658
15.3898
13.7427
13.1199
8.4312
5.20414
3.6434
2.77862
2.14518
1.6601
1.31547
1.08352
0.929756
0.82909
0.763768
0.721202
0.689844
0.655019
0.604696
0.543944
0.589655
40.318
40.5307
41.0815
42.0654
43.6626
46.2112
50.2973
56.9127
67.7663
107.268
183.162
413.034
1952.84
-419.485
206.457
78.204
31.7835
15.9031
7.16079
-2.87978
-7.94981
15.1857
14.7435
9.08136
5.56105
4.14426
3.49485
3.03139
2.6693
2.40934
2.22676
2.09047
1.98221
1.89093
1.81079
1.73722
1.6581
1.56862
1.47367
1.44667
35.2786
35.0993
34.6676
33.9522
32.8818
31.2804
28.7432
24.3244
15.6395
17.9438
1.08883
-160.527
-998.476
-1046.27
-315.694
-101.644
-46.3202
-26.3079
-17.3761
-11.1008
-4.0296
-7.50927
-5.66744
-4.13214
-3.35103
-2.51359
-1.66084
-0.96206
-0.420899
0.0153576
0.377733
0.678222
0.924871
1.12375
1.27861
1.38802
1.43613
1.39066
1.18276
0.678497
30.6344
30.0911
28.7349
26.4309
22.9059
17.5978
9.48037
-3.3445
-24.5017
-47.7439
-121.244
-265.652
-475.752
-506.144
-321.713
-176.129
-101.283
-61.9819
-39.9621
-25.9101
-15.6878
-8.66952
-4.66088
-1.80434
-0.0681606
1.0203
1.80129
2.36304
2.74249
2.98918
3.14515
3.23584
3.27533
3.27078
3.22258
3.12387
2.95019
2.65167
2.13069
1.19232
26.7833
25.9322
23.824
20.2505
14.826
6.81898
-4.98283
-22.5576
-49.1911
-90.4871
-148.381
-221.399
-287.277
-296.305
-239.492
-166.642
-111.316
-75.6842
-52.4924
-36.3556
-24.8515
-17.1289
-11.9814
-8.30208
-5.67552
-3.79612
-2.38293
-1.28522
-0.432528
0.228519
0.744509
1.14913
1.46264
1.69548
1.84783
1.91333
1.8685
1.66946
1.25315
0.567101
24.0341
22.9721
20.3456
15.9209
9.27158
-0.334316
-14.0089
-33.2542
-59.9493
-95.9784
-141.347
-190.912
-230.067
-237.927
-208.199
-159.777
-115.463
-82.931
-59.9586
-43.1434
-30.5948
-21.369
-14.5924
-9.60971
-5.95909
-3.29845
-1.34709
0.0944256
1.1549
1.92568
2.47792
2.86478
3.12203
3.26996
3.30855
3.24872
3.06657
2.71407
2.11569
1.13525
22.6037
21.4452
18.5434
13.7181
6.46802
-3.845
-18.2477
-37.8975
-63.9729
-96.8627
-135.118
-173.392
-201.752
-208.564
-189.516
-153.98
-116.656
-86.1318
-63.3005
-46.1769
-33.1925
-23.4557
-16.2851
-11.051
-7.2769
-4.5414
-2.54231
-1.0681
0.0251707
0.836252
1.43659
1.87756
2.19483
2.41325
2.47948
2.46915
2.34021
2.04091
1.51811
0.712406
59.6462
60.8914
63.922
68.8491
75.7791
84.9301
96.5105
110.528
126.518
143.176
158.039
167.199
166.638
155.184
135.615
113.307
92.1482
73.6473
58.1421
45.5925
35.7243
28.138
22.3959
18.0703
14.7786
12.2184
10.1983
8.63349
7.44505
6.53606
5.82952
5.27278
4.83218
4.46128
4.11614
3.75563
3.3348
2.80495
2.08502
1.07058
58.5965
59.8166
62.7977
67.6699
74.6015
83.9142
95.9894
111.085
129.065
148.938
168.123
181.26
180.622
165.18
140.359
114.361
91.1696
71.5958
55.6544
43.1089
33.5135
26.2637
20.821
16.8081
13.7844
11.4254
9.57907
8.15757
7.06817
6.22217
5.555
5.0227
4.59096
4.22221
3.87989
3.52627
3.11905
2.60426
1.90983
0.954597
56.5223
57.6795
60.5216
65.2223
72.0532
81.5208
94.3333
111.298
133.091
159.595
187.583
208.704
209.141
184.641
149.664
117.334
90.2778
68.4946
51.629
38.9915
29.8224
23.31
18.5507
14.9932
12.0887
9.73916
7.97357
6.69641
5.76256
5.06533
4.54049
4.14287
3.83504
3.58279
3.35362
3.1127
2.81868
2.41307
1.81209
0.898886
53.4757
54.5106
57.071
61.375
67.8017
77.0678
90.3088
109.21
136.165
174.422
210.141
252.436
258.133
217.78
166.843
127.182
94.2459
68.8623
50.2585
36.8739
23.4048
17.7418
15.1373
13.3813
11.1484
8.97132
7.29606
6.0781
5.15956
4.44792
3.89731
3.47078
3.13674
2.86501
2.62966
2.40329
2.14802
1.80261
1.26223
0.349432
49.5694
50.4025
52.4849
56.0476
61.52
69.7313
82.1065
101.048
130.565
175.561
251.926
337.606
360.707
252.885
170.499
123.368
83.6776
56.4649
38.656
27.4531
20.7049
7.96575
6.65112
6.54582
5.53059
4.50857
3.82185
3.34581
2.97199
2.67329
2.44132
2.261
2.11982
2.00381
1.90278
1.80642
1.69276
1.51168
1.13759
0.223272
45.0014
45.5449
46.9302
49.3442
53.1529
59.0759
68.4258
83.6406
109.49
164.302
258.133
452.603
615.825
240.029
169.461
117.166
68.3827
40.8065
24.771
15.3341
16.2831
12.917
11.6911
6.83058
3.7451
2.43499
1.84702
1.47011
1.19427
1.00394
0.876859
0.788408
0.726053
0.683191
0.65844
0.651577
0.662615
0.693259
0.757174
0.940333
40.0422
40.2425
40.751
41.6653
43.1633
45.5771
49.4888
55.9
66.5679
106.047
182.215
414.395
1941.6
208.148
88.7391
33.8822
16.141
6.94005
-3.31441
-9.42238
12.9215
12.894
7.77676
4.7572
3.64702
3.12824
2.691
2.30103
1.98658
1.74077
1.54476
1.38884
1.26659
1.17625
1.11703
1.08645
1.08465
1.11619
1.20825
35.0829
34.9065
34.4594
33.7217
32.6279
31.0098
28.481
24.1427
15.7066
18.113
1.985
-155.398
-971.534
-1038.32
-311.335
-98.9356
-45.372
-26.1395
-17.5238
-11.3795
-5.14117
-9.96827
-7.80527
-5.81919
-4.57245
-3.36655
-2.26904
-1.41033
-0.761964
-0.256218
0.14783
0.471487
0.731104
0.939035
1.10623
1.23837
1.3286
1.34878
1.22318
0.760003
30.5241
29.9862
28.6378
26.3569
22.8786
17.658
9.70206
-2.83036
-23.4647
-46.6107
-118.614
-260.678
-467.824
-496.109
-315.923
-172.639
-99.2872
-60.9431
-39.5065
-25.8469
-16.0056
-9.79898
-5.74006
-2.67659
-0.730162
0.512141
1.37954
1.97862
2.36511
2.60055
2.73573
2.8034
2.8231
2.80631
2.75741
2.6736
2.53487
2.29455
1.85744
1.03533
26.7361
25.8958
23.8249
20.3115
14.9865
7.14505
-4.39095
-21.5414
-47.4999
-87.7395
-144.174
-215.455
-280.032
-288.653
-233.146
-162.317
-108.701
-74.2122
-51.7364
-36.0905
-24.9691
-17.5975
-12.5518
-8.85472
-6.18648
-4.26106
-2.80355
-1.66937
-0.790814
-0.1138
0.410832
0.819465
1.13527
1.37146
1.53237
1.61448
1.59824
1.44345
1.09145
0.495725
24.0353
22.9942
20.4155
16.0727
9.56335
0.170756
-13.1808
-31.9489
-57.9533
-93.0357
-137.215
-185.496
-223.742
-231.598
-202.725
-155.8
-112.874
-81.3585
-59.0616
-42.7126
-30.5067
-21.5333
-14.9003
-9.98813
-6.36844
-3.71554
-1.75938
-0.310405
0.754327
1.52491
2.07377
2.45568
2.70813
2.85401
2.90207
2.85526
2.69563
2.38218
1.84927
0.989154
22.6324
21.4856
18.6556
13.9057
6.82975
-3.2534
-17.3098
-36.4749
-61.8501
-93.8945
-131.168
-168.488
-196.219
-203.092
-184.78
-150.278
-114.071
-84.4868
-62.3119
-45.6481
-32.9892
-23.4872
-16.4765
-11.3533
-7.62321
-4.90449
-2.9105
-1.43508
-0.338632
0.475006
1.07642
1.51688
1.83115
2.03846
2.13822
2.14156
2.02892
1.76216
1.29909
0.614281
58.5664
59.7253
62.5563
67.1487
73.6025
82.1202
92.8988
105.934
120.794
136.288
150.106
158.605
158.073
147.332
128.954
107.948
87.9344
70.3358
55.5364
43.5416
34.1028
26.801
21.2245
17.0278
13.8583
11.4089
9.49311
8.00815
6.87032
5.99659
5.31718
4.78072
4.34791
3.98349
3.65244
3.31752
2.9366
2.45705
1.80843
0.90037
57.5425
58.6787
61.4572
65.9953
72.4481
81.1138
92.3478
106.389
123.119
141.631
159.562
171.724
171.209
156.71
133.382
108.905
86.9414
68.295
53.0808
41.1164
31.9534
24.916
19.5849
15.7203
12.8692
10.6532
8.90653
7.54591
6.48905
5.6593
5.00004
4.47126
4.03973
3.67458
3.34569
3.02007
2.65847
2.20835
1.60184
0.768377
55.5211
56.5968
59.2393
63.6102
69.9608
78.7621
90.6771
106.468
126.788
151.569
177.825
197.887
198.199
175.055
142.191
111.757
86.0468
65.2198
49.1052
37.0853
28.4104
21.9375
17.1198
13.7007
11.0469
8.91993
7.30593
6.1226
5.24275
4.57204
4.05573
3.65627
3.34252
3.08825
2.8678
2.6542
2.41182
2.08685
1.59306
0.798482
52.5569
53.514
55.886
59.8758
65.8358
74.4357
86.7447
104.364
129.594
165.617
200.911
241.565
246.984
208.092
159.692
122.039
90.3378
65.8059
47.8837
35.0553
21.4277
15.5563
13.3326
11.9553
9.93556
7.85551
6.20948
4.98333
4.03987
3.30114
2.7288
2.29095
1.95871
1.70519
1.50897
1.34943
1.19781
1.00254
0.666023
0.0173114
48.7613
49.5265
51.443
54.7266
59.7784
67.3763
78.8693
96.554
124.319
168.258
241.981
325.343
347.574
242.417
164.52
119.311
80.3613
53.6104
36.278
25.4611
18.5179
1.50243
2.39858
4.18598
3.95753
3.24621
2.70879
2.29583
1.9284
1.60509
1.33608
1.12029
0.955792
0.835173
0.757046
0.720557
0.721674
0.7318
0.647503
0.103828
44.3207
44.8223
46.0783
48.2728
51.7512
57.1915
65.8449
80.0585
104.508
158.135
250.404
442.183
601.85
230.537
168.588
114.077
65.4151
37.9171
22.4039
13.577
12.2612
6.62891
6.51128
2.77674
-0.0546943
-1.44208
-2.1138
-2.52285
-2.78474
-2.92233
-2.96554
-2.95078
-2.88739
-2.78857
-2.65327
-2.4717
-2.22018
-1.85599
-1.28374
-0.208891
39.5273
39.6921
40.1187
40.898
42.1986
44.3371
47.8754
53.8142
63.9629
102.774
178.506
410.798
1922.64
198.196
87.6095
33.7902
14.4758
5.01014
-4.77586
-10.9782
14.6939
12.7386
5.97946
2.15948
0.655439
-0.0291841
-0.471946
-0.770097
-0.946875
-1.04073
-1.08709
-1.10418
-1.09237
-1.04671
-0.952844
-0.786121
-0.512854
-0.0770235
0.587187
34.7266
34.5354
34.0602
33.2817
32.1408
30.4829
27.9592
23.758
15.7841
18.4263
3.68655
-148.715
-960.376
-1013.67
-296.524
-92.5497
-42.6884
-25.5229
-17.8874
-12.2646
-5.44759
-7.82057
-7.20016
-6.54081
-5.77091
-4.72584
-3.70357
-2.86709
-2.20211
-1.65928
-1.20758
-0.829931
-0.513382
-0.243725
-0.0012047
0.228338
0.455409
0.668757
0.803763
0.625747
30.3149
29.7817
28.4603
26.227
22.8388
17.7886
10.1517
-1.78912
-21.3385
-43.6765
-112.359
-249.27
-450.126
-476.248
-300.989
-163.989
-94.7638
-58.7606
-38.6301
-25.7346
-16.2477
-9.99268
-6.26634
-3.54354
-1.80923
-0.697304
0.0986586
0.676184
1.07876
1.3543
1.54442
1.67481
1.76141
1.8146
1.84488
1.85552
1.83755
1.75632
1.52265
0.931433
26.6538
25.841
23.8314
20.4349
15.3073
7.78939
-3.21904
-19.5129
-44.0863
-82.1088
-135.489
-203.176
-264.823
-273.178
-220.597
-153.891
-103.659
-71.364
-50.2265
-35.4609
-24.9517
-17.9883
-12.9299
-9.25841
-6.71308
-4.90176
-3.50607
-2.39318
-1.51213
-0.818255
-0.266786
0.175031
0.529445
0.807618
1.01957
1.16523
1.23151
1.18513
0.967934
0.508597
24.0438
23.0394
20.5549
16.3765
10.1343
1.15655
-11.5596
-29.3758
-53.9935
-87.1537
-128.924
-174.682
-211.165
-218.944
-191.936
-147.89
-107.653
-78.0869
-57.082
-41.6226
-30.0534
-21.5006
-15.047
-10.2636
-6.78516
-4.25292
-2.37608
-0.970783
0.0749674
0.844274
1.40529
1.80939
2.09225
2.2756
2.37229
2.38377
2.29698
2.07849
1.66755
0.951146
22.6891
21.5859
18.8628
14.2983
7.52552
-2.10113
-15.477
-33.6644
-57.6875
-87.9973
-123.262
-158.652
-185.119
-191.994
-175.083
-142.821
-108.876
-81.0826
-60.1619
-44.3762
-32.3485
-23.2844
-16.5395
-11.5719
-7.94755
-5.31287
-3.38022
-1.94138
-0.861387
-0.0494395
0.561046
1.01889
1.35728
1.59509
1.74083
1.79365
1.74098
1.55415
1.19463
0.626849
57.0516
58.0932
60.6381
64.7633
70.5505
78.1726
87.7959
99.405
112.607
126.341
138.552
145.99
145.421
135.681
119.052
99.9932
81.7011
65.4811
51.7655
40.6222
31.8372
24.9886
19.6718
15.6063
12.5289
10.1721
8.34691
6.94028
5.86688
5.04924
4.42192
3.9343
3.54762
3.22994
2.95069
2.6774
2.37247
1.98841
1.46228
0.712908
56.0637
57.0829
59.5759
63.6448
69.4215
77.1635
87.1784
99.6683
114.521
130.937
146.869
157.441
156.981
143.89
122.844
100.693
80.6235
63.4311
49.3551
38.2956
29.8323
23.183
18.0128
14.2232
11.4549
9.33227
7.67044
6.38237
5.39087
4.62363
4.02594
3.55699
3.18333
2.8763
2.61001
2.35711
2.08448
1.74616
1.2796
0.612318
54.1162
55.0769
57.4384
61.3429
67.0083
74.8465
85.4399
99.4613
117.494
139.5
162.854
180.864
180.897
159.963
130.483
103.049
79.538
60.3147
45.4396
34.4506
26.7511
20.4581
15.3538
11.8483
9.37008
7.46507
6.01542
4.94679
4.15713
3.56341
3.11431
2.77503
2.51837
2.31995
2.16133
2.02296
1.87994
1.68781
1.36326
0.742375
51.2651
52.1152
54.2208
57.7622
63.0489
70.6705
81.5756
97.1954
119.615
151.79
185.494
222.911
227.696
191.565
147.571
113.28
83.778
60.8462
44.1593
32.3457
19.8952
14.4404
11.1742
9.2505
7.37181
5.62602
4.27284
3.27783
2.52218
1.93441
1.47911
1.13537
0.879794
0.69064
0.560797
0.483483
0.451025
0.434805
0.355167
-0.000170356
47.6232
48.2963
49.9771
52.8595
57.2974
63.9795
74.1119
89.7648
114.518
155.852
224.043
302.353
322.978
223.217
153.134
111.515
74.2099
48.7338
32.457
22.4076
16.1743
-1.14043
0.0610211
2.05496
1.96354
1.31329
0.799178
0.402195
0.0528612
-0.252506
-0.508429
-0.707743
-0.857822
-0.961128
-1.00567
-0.974871
-0.843057
-0.59467
-0.2802
-0.247543
43.3772
43.8035
44.8743
46.7526
49.744
54.4518
61.9974
74.5202
96.3866
146.987
235.181
420.468
573.227
209.838
162.27
109.54
60.6746
33.5632
18.6384
9.90004
8.51815
-6.0472
-2.07406
-1.94643
-2.90431
-3.42974
-3.66778
-3.87816
-4.09072
-4.27016
-4.40269
-4.50429
-4.55592
-4.55944
-4.49577
-4.32913
-3.99651
-3.38491
-2.29615
-0.426566
38.7999
38.9183
39.2273
39.809
40.8127
42.5184
45.4332
50.4976
59.4854
96.3269
169.952
400.649
1881.73
204.867
90.2996
32.4133
11.4387
1.59901
-7.51735
-15.9692
12.9206
10.5168
3.79379
-0.0494221
-1.79022
-2.7648
-3.4707
-3.99511
-4.36184
-4.60819
-4.76135
-4.84579
-4.86986
-4.80951
-4.63595
-4.29045
-3.67351
-2.62445
-0.950487
34.227
34.0161
33.4987
32.6573
31.4371
29.6959
27.1285
23.0322
15.5923
18.3154
5.51793
-136.771
-915.188
-961.578
-270.667
-83.2899
-40.633
-26.2039
-19.5325
-14.1386
-7.06391
-9.21589
-8.29382
-7.42536
-6.54855
-5.51301
-4.53787
-3.75701
-3.15805
-2.69176
-2.32248
-2.01642
-1.77574
-1.57066
-1.36423
-1.1259
-0.818832
-0.410634
0.0787516
0.379395
30.0241
29.4999
28.2116
26.0415
22.7733
17.9527
10.7544
-0.348137
-18.2964
-39.0919
-102.221
-229.33
-417.412
-440.545
-275.611
-150.448
-88.3188
-55.9834
-37.745
-25.9799
-17.4263
-12.52
-7.86113
-4.49678
-2.71193
-1.74231
-1.08613
-0.625795
-0.326372
-0.139041
-0.0187294
0.0628617
0.119266
0.167206
0.223212
0.298743
0.399042
0.513286
0.578538
0.426253
26.5395
25.7613
23.8405
20.608
15.7559
8.69272
-1.56515
-16.6172
-39.1306
-73.7313
-122.256
-183.984
-240.436
-248.439
-201.176
-141.297
-96.3399
-67.2804
-48.0763
-34.6161
-25.1249
-18.9996
-13.6223
-9.64711
-7.09971
-5.38136
-4.06028
-3.00196
-2.16865
-1.51806
-1.00426
-0.592645
-0.261492
0.00538356
0.223977
0.400006
0.530315
0.595746
0.550416
0.330831
24.0553
23.1021
20.7475
16.8001
10.931
2.5379
-9.27607
-25.7207
-48.3076
-78.594
-116.669
-158.427
-191.965
-199.524
-175.533
-136.095
-99.9938
-73.3
-54.1583
-39.987
-29.3725
-21.4946
-15.3043
-10.6042
-7.21191
-4.78052
-2.99333
-1.66202
-0.678775
0.0376194
0.555564
0.927366
1.1894
1.36567
1.47319
1.51683
1.4892
1.36735
1.10634
0.636584
22.7669
21.7236
19.1507
14.8511
8.49887
-0.485836
-12.9044
-29.6969
-51.7697
-79.5199
-111.756
-144.157
-168.575
-175.328
-160.534
-131.771
-101.277
-76.1117
-56.9995
-42.4782
-31.3688
-22.9533
-16.5943
-11.8003
-8.26348
-5.70078
-3.83232
-2.44563
-1.40735
-0.629968
-0.0483979
0.386414
0.708454
0.93934
1.09132
1.16649
1.15647
1.04207
0.798027
0.420507
55.217
56.1172
58.3169
61.8772
66.8556
73.383
81.5806
91.4084
102.504
113.948
124.001
129.991
129.225
120.691
106.312
89.7796
73.736
59.327
47.0215
36.9643
29.0185
22.8248
17.986
14.2182
11.3243
9.1041
7.39076
6.07147
5.06216
4.29192
3.70213
3.24003
2.87106
2.56977
2.31234
2.0729
1.82092
1.51718
1.10959
0.524065
54.2719
55.1503
57.2983
60.7984
65.7506
72.3562
80.8521
91.3763
103.793
117.385
130.39
138.901
138.264
126.973
108.983
89.943
72.4268
57.2024
44.6344
34.7381
27.208
21.3202
16.675
13.1123
10.4267
8.35726
6.73998
5.48581
4.51913
3.77576
3.20818
2.76269
2.40694
2.11961
1.88257
1.67317
1.4656
1.22556
0.903756
0.428359
52.4129
53.2354
55.2562
58.5921
63.4151
70.0542
78.9724
90.6942
105.653
123.771
142.923
157.39
156.903
139.105
114.342
91.0783
70.7144
53.7901
40.6079
30.9702
24.6474
19.3301
14.4438
10.8907
8.45641
6.6578
5.2895
4.26426
3.48884
2.89708
2.43325
2.07715
1.80932
1.60525
1.45261
1.34131
1.2612
1.18579
1.05024
0.670523
49.6993
50.4184
52.1992
55.1908
59.6414
66.0266
75.1108
88.0398
106.481
132.829
163.294
194.848
198.34
166.858
129.64
100.238
74.2212
53.8896
39.0953
28.8938
19.7006
17.017
11.6427
7.73763
5.15324
3.28826
1.95974
1.03242
0.375716
-0.110125
-0.474612
-0.736654
-0.915143
-1.03508
-1.09437
-1.08042
-0.97596
-0.76828
-0.473946
-0.248203
46.2439
46.8016
48.1941
50.5809
54.2486
59.7549
68.0745
80.8862
101.128
137.634
195.459
263.232
280.328
191.566
134.698
98.0156
64.1423
41.3122
26.9468
18.626
15.7646
8.01734
5.42744
3.72404
2.07511
0.666285
-0.363394
-1.13527
-1.75542
-2.2663
-2.68531
-3.00748
-3.2423
-3.40292
-3.47084
-3.40128
-3.13812
-2.59009
-1.67345
-0.619242
42.2284
42.5635
43.4068
44.8914
47.2643
51.0107
57.0327
67.0741
84.7573
129.276
208.229
377.305
516.757
175.055
157.673
98.578
50.682
25.368
11.9324
4.41789
-1.96164
-30.6836
-27.5726
-25.7111
-24.8294
-23.7718
-22.7456
-21.9109
-21.2242
-20.6186
-20.062
-19.559
-19.0693
-18.5546
-17.982
-17.2905
-16.3558
-14.9205
-12.4076
-7.38161
37.9126
37.9752
38.1385
38.4704
39.0888
40.2076
42.226
45.9019
52.7247
85.1335
152.336
372.802
1808.2
269.303
74.4514
16.1979
-2.15216
-9.66513
-15.572
-22.267
-2.45666
-4.66439
-9.63579
-12.1926
-13.1479
-13.5693
-13.8167
-13.9364
-13.9398
-13.8576
-13.7329
-13.5348
-13.2718
-12.924
-12.4297
-11.6737
-10.4207
-8.22795
-4.41666
33.6107
33.3803
32.8106
31.8848
30.5496
28.6711
25.9763
21.8642
14.8369
17.0622
6.26086
-120.013
-831.513
-859.287
-232.878
-75.9763
-42.8037
-31.0083
-24.811
-19.5273
-14.3718
-22.563
-17.9233
-13.9087
-11.6776
-10.0965
-8.85281
-7.92708
-7.25258
-6.74848
-6.36052
-6.04507
-5.78711
-5.5508
-5.29384
-4.96217
-4.48055
-3.73251
-2.58668
-1.08234
29.665
29.1541
27.9
25.8001
22.6667
18.1084
11.4209
1.3233
-14.6292
-33.1368
-87.982
-198.629
-363.388
-381.868
-238.25
-132.691
-80.7772
-53.1606
-37.1914
-27.0546
-21.1595
-19.6891
-12.9788
-7.76604
-5.21875
-3.90808
-3.03217
-2.41649
-2.00562
-1.7327
-1.54165
-1.40061
-1.29036
-1.18278
-1.05721
-0.889658
-0.651322
-0.314855
0.104761
0.412138
26.3941
25.657
23.8425
20.803
16.278
9.76163
0.420583
-13.0837
-32.962
-63.0227
-104.744
-157.583
-205.823
-213.397
-174.53
-124.804
-87.0568
-62.1356
-45.3182
-33.4892
-25.415
-20.6747
-15.2933
-10.9691
-8.17857
-6.29763
-4.85466
-3.70819
-2.81458
-2.12336
-1.58296
-1.1536
-0.811996
-0.531103
-0.292151
-0.0800334
0.114827
0.290459
0.413682
0.384006
24.0629
23.1705
20.9704
17.2983
11.8769
4.19252
-6.51476
-21.2557
-41.2727
-67.8241
-100.922
-137.035
-166.209
-173.317
-153.672
-120.766
-90.2065
-67.1551
-50.3055
-37.7079
-28.2922
-21.3683
-15.7823
-11.3029
-7.95283
-5.51299
-3.70355
-2.34403
-1.32906
-0.578927
-0.0260117
0.38158
0.680325
0.897285
1.05091
1.15084
1.19677
1.17375
1.04124
0.701344
22.8546
21.8819
19.4876
15.5029
9.65368
1.44611
-9.79822
-24.8647
-44.491
-68.9661
-97.2271
-125.569
-147.075
-153.497
-141.493
-117.46
-91.5222
-69.7133
-52.8515
-39.883
-29.9067
-22.3349
-16.5611
-12.0788
-8.67292
-6.15502
-4.29161
-2.8896
-1.82526
-1.01707
-0.403477
0.0629318
0.416187
0.679678
0.867618
0.986059
1.03123
0.988696
0.833337
0.530338
53.198
53.9457
55.7704
58.7151
62.8101
68.1376
74.7639
82.6132
91.3428
100.17
107.701
111.913
110.762
103.518
91.7022
78.0909
64.698
52.4554
41.815
32.9692
25.8575
20.2459
15.8689
12.4815
9.86934
7.84332
6.26483
5.04072
4.09761
3.37521
2.82994
2.4029
2.06246
1.78501
1.55559
1.35138
1.14705
0.91323
0.616289
0.224342
52.2993
53.0264
54.7991
57.6781
61.7271
67.0812
73.8912
82.2086
91.843
102.13
111.584
117.514
116.368
107.107
92.751
77.4455
63.0614
50.2587
39.457
30.7357
23.8587
18.5073
14.3544
11.1851
8.76168
6.86814
5.37578
4.20644
3.28636
2.56508
2.06027
1.66385
1.33694
1.0712
0.864499
0.697856
0.545756
0.387854
0.202436
-0.00787399
50.5367
51.2111
52.8606
55.5732
59.4685
64.7764
71.8116
80.8998
92.2394
105.581
119.246
128.944
127.544
113.446
94.3508
76.3379
60.1668
46.2656
35.1018
26.5429
20.0098
15.2983
11.4168
8.50145
6.32172
4.65067
3.3775
2.44009
1.71038
1.1812
0.732435
0.401158
0.17645
0.0318593
-0.0620687
-0.10441
-0.0979258
-0.0467038
0.0254626
0.0537383
47.9727
48.5525
49.9781
52.3648
55.8883
60.8863
67.8881
77.6483
91.1888
109.778
134.756
157.046
158.569
133.947
105.363
82.4607
61.6782
45.0239
32.5991
23.7098
12.423
9.67332
6.3939
3.8024
1.66833
-0.0219503
-1.28075
-2.20547
-2.8469
-3.32994
-3.69023
-3.92858
-4.06364
-4.12425
-4.10994
-3.99586
-3.75708
-3.34128
-2.66654
-1.56463
44.7237
45.1546
46.2318
48.0718
50.8786
55.0489
61.2532
70.6161
85.049
113.996
154.978
202.909
211.414
142.237
102.228
74.8469
48.3966
30.2094
18.5654
11.8769
10.2174
-1.92167
-3.36558
-4.70973
-6.07793
-7.36418
-8.2138
-8.76829
-9.15066
-9.42522
-9.61421
-9.73075
-9.74332
-9.65352
-9.49723
-9.19146
-8.65889
-7.74751
-6.19508
-3.57997
40.9607
41.1961
41.7898
42.8369
44.5124
47.1483
51.3514
58.2648
70.2127
104.364
164.51
292.885
395.607
105.772
116.895
60.043
21.8481
2.44412
-7.51116
-12.1972
-10.2137
-24.4075
-26.2741
-30.3837
-31.7674
-31.5391
-31.0367
-30.502
-29.9205
-29.2884
-28.6202
-27.9085
-27.196
-26.4658
-25.6275
-24.623
-23.3064
-21.3262
-17.8557
-10.8435
36.9315
36.9303
36.9336
36.986
37.1624
37.5902
38.502
40.331
43.9203
68.156
119.414
301.413
1622.68
264.364
-14.5979
-59.0861
-68.2336
-69.3893
-67.9115
-62.8218
-35.474
-34.5337
-36.8732
-37.2464
-36.3984
-35.3555
-34.3624
-33.3921
-32.4266
-31.4709
-30.5512
-29.6332
-28.6705
-27.6691
-26.5336
-25.1057
-23.0103
-19.3781
-11.9525
32.9271
32.6727
32.0433
31.0181
29.5429
27.4843
24.5827
20.3133
13.4908
14.1863
4.55427
-93.9523
-660.469
-652.068
-187.927
-78.9548
-54.6591
-44.0526
-37.5266
-31.9715
-29.4414
-31.665
-27.1211
-23.0857
-20.674
-18.8412
-17.3666
-16.2222
-15.3264
-14.6042
-14.0044
-13.4939
-13.0568
-12.6117
-12.1417
-11.5879
-10.8436
-9.7172
-7.85666
-4.55721
29.2619
28.7664
27.5442
25.5146
22.521
18.2362
12.0883
3.0915
-10.4696
-26.228
-69.9528
-154.48
-278.356
-293.321
-188.907
-111.493
-71.9521
-49.5914
-35.9516
-27.2478
-24.5107
-19.3411
-15.1881
-11.9329
-9.9991
-8.70692
-7.7079
-6.92827
-6.32632
-5.85338
-5.46917
-5.14561
-4.86825
-4.60309
-4.3261
-4.00763
-3.60218
-3.04486
-2.24613
-1.08842
26.2252
25.532
23.8299
20.9961
16.8232
10.9004
2.56671
-9.204
-26.0448
-50.7324
-84.0763
-125.068
-161.709
-168.9
-141.368
-104.511
-75.2944
-55.0153
-40.7006
-30.3144
-23.0554
-18.892
-15.0805
-11.8959
-9.52733
-7.74616
-6.33769
-5.21017
-4.3154
-3.60605
-3.03909
-2.57956
-2.20469
-1.88586
-1.60228
-1.33537
-1.06977
-0.791646
-0.49395
-0.163489
24.0628
23.2362
21.2016
17.8258
12.8899
5.97994
-3.50718
-16.3489
-33.4525
-55.6659
-82.8131
-111.943
-135.469
-141.728
-127.473
-102.621
-78.5655
-59.6488
-45.3153
-34.3327
-25.9772
-19.8163
-15.0653
-11.3024
-8.42567
-6.27156
-4.64545
-3.40642
-2.46196
-1.74325
-1.19445
-0.772891
-0.447272
-0.19345
0.00545811
0.159504
0.270271
0.330742
0.325063
0.243487
22.9428
22.0453
19.8436
16.1988
10.8954
3.53727
-6.41416
-19.5636
-36.44
-57.1731
-80.7985
-104.281
-122.141
-127.953
-119.211
-100.605
-79.9319
-61.9424
-47.5848
-36.2816
-27.4447
-20.6795
-15.5552
-11.6293
-8.63825
-6.38427
-4.68254
-3.38518
-2.39032
-1.62664
-1.03994
-0.587875
-0.239347
0.0271945
0.225877
0.363828
0.438744
0.440673
0.360806
0.225789
51.1429
51.7385
53.1909
55.523
58.7385
62.8729
67.9383
73.8262
80.2143
86.4553
91.4862
93.8809
92.2834
86.2775
76.9686
66.2545
55.5499
45.5588
36.677
29.128
22.9337
17.9771
14.1053
11.1572
8.89998
7.1335
5.74335
4.66051
3.82567
3.18554
2.69583
2.31344
2.00996
1.76465
1.55948
1.37386
1.1829
0.957006
0.659532
0.248598
50.2926
50.8673
52.268
54.5289
57.6786
61.7876
66.9223
73.0511
79.9353
86.9729
92.9937
96.1004
94.2244
86.8708
76.1309
64.6126
53.531
43.3572
34.4891
27.1077
21.1216
16.3478
12.671
9.98148
7.96089
6.37778
5.1282
4.14818
3.37881
2.77626
2.31067
1.94071
1.64243
1.40113
1.20467
1.03813
0.881229
0.709657
0.489567
0.178024
48.6287
49.1526
50.4357
52.5277
55.4991
59.482
64.6441
71.1162
78.8721
87.5118
95.7741
100.681
97.8684
86.8903
73.1959
60.4558
48.749
38.1564
29.203
21.9915
16.2248
11.775
8.96776
6.99047
5.33355
3.98838
2.98005
2.24798
1.70818
1.31084
1.01106
0.794867
0.64661
0.547972
0.486781
0.461097
0.466646
0.488769
0.485179
0.328601
46.2178
46.6518
47.729
49.5154
52.1155
55.7316
60.6578
67.2584
75.9215
86.9264
98.7144
107.652
102.639
84.1682
66.9042
53.6654
41.5721
31.0535
22.6453
15.8869
9.26541
3.02384
2.9661
3.26715
2.56454
1.57997
0.739818
0.0769621
-0.449316
-0.87281
-1.2045
-1.44572
-1.6046
-1.69552
-1.71749
-1.65438
-1.48875
-1.19633
-0.770903
-0.2927
43.1821
43.4797
44.2435
45.5436
47.4912
50.327
54.4128
60.2895
68.71
88.4512
109.442
130.834
126.124
85.229
62.172
48.6141
32.5818
20.2966
12.0343
6.47037
1.10392
-12.9566
-10.5765
-7.68494
-6.41001
-5.83709
-5.46217
-5.20123
-5.04084
-4.95505
-4.91134
-4.88018
-4.83987
-4.77699
-4.6586
-4.4353
-4.04266
-3.3784
-2.33619
-0.966254
39.6644
39.8059
40.1503
40.7629
41.7419
43.2665
45.6394
49.3625
55.2925
76.4634
103.545
149.132
169.21
29.1059
23.2836
6.07933
-4.15009
-9.03319
-12.3553
-14.5113
-20.1714
-12.6173
-14.2444
-16.2288
-16.855
-16.8802
-16.7781
-16.6378
-16.4529
-16.2215
-15.9465
-15.6137
-15.248
-14.8448
-14.3442
-13.6899
-12.7752
-11.3698
-9.03566
-5.0426
35.9315
35.8659
35.7079
35.4814
35.2157
34.9485
34.7323
34.6312
34.6945
48.2326
59.5854
130.052
172.548
-697.245
-133.998
-95.3288
-69.917
-63.1696
-57.9631
-54.0184
-67.05
-39.9194
-37.7171
-35.7321
-33.8877
-32.0403
-30.4004
-28.9951
-27.7569
-26.6403
-25.6216
-24.686
-23.8126
-22.9424
-22.042
-21.0451
-19.8321
-18.1156
-15.2637
-9.64502
32.2246
31.9477
31.2574
30.1318
28.5162
26.2717
23.1362
18.6177
11.7397
10.043
-11.6884
-80.5028
-304.104
-256.296
-108.271
-61.1656
-40.3405
-30.174
-24.0972
-19.166
-10.9961
4.54132
1.75067
-1.92021
-3.52427
-4.2451
-4.69471
-5.00969
-5.21868
-5.34768
-5.4207
-5.45943
-5.45634
-5.38463
-5.22808
-4.96201
-4.51848
-3.77238
-2.56512
-0.949565
28.845
28.3624
27.1737
25.2139
22.359
18.3417
12.7041
4.6646
-7.22479
-25.8728
-49.7542
-103.937
-174.67
-187.421
-131.194
-84.9697
-58.0295
-41.0327
-29.8913
-21.8248
-11.339
-2.03955
-2.79588
-4.15074
-4.15119
-3.68107
-3.22245
-2.84072
-2.52046
-2.25294
-2.03098
-1.84302
-1.68076
-1.53033
-1.36125
-1.15253
-0.879888
-0.511177
-0.0575381
0.289359
26.0463
25.3982
23.8042
21.1753
17.3538
12.0237
4.69342
-5.36479
-19.1862
-38.093
-62.841
-91.4264
-116.137
-122.428
-106.576
-82.6649
-61.9193
-46.3848
-34.7188
-25.5358
-17.8461
-12.544
-9.52753
-7.36104
-5.45631
-3.89403
-2.71187
-1.83354
-1.17637
-0.683039
-0.312084
-0.0307653
0.183123
0.35222
0.49939
0.636356
0.767688
0.884225
0.934218
0.74983
24.0545
23.2915
21.4231
18.3437
13.8932
7.75818
-0.507199
-11.4461
-25.6187
-43.3827
-64.3065
-86.2263
-103.586
-109.127
-100.471
-83.5834
-66.0802
-51.3839
-39.6571
-30.2511
-22.6698
-16.7621
-12.2249
-8.87014
-6.35476
-4.44402
-2.99696
-1.90197
-1.07049
-0.437115
0.0457485
0.414012
0.694215
0.906516
1.06493
1.17628
1.23648
1.22555
1.09526
0.741617
23.0238
22.2019
20.1917
16.887
12.1306
5.62285
-3.0348
-14.2613
-28.3693
-45.3039
-64.1707
-82.6351
-96.6485
-101.752
-96.2112
-83.0438
-67.5886
-53.4364
-41.6473
-32.0386
-24.2769
-18.1364
-13.4043
-9.83207
-7.11843
-5.02669
-3.4108
-2.16792
-1.2151
-0.485855
0.0709201
0.494089
0.813034
1.04845
1.21313
1.31273
1.34111
1.27925
1.08939
0.707989
49.1967
49.652
50.7628
52.5366
54.9522
58.0074
61.6725
65.8209
70.1651
74.1953
77.1502
78.0961
76.2274
71.3722
64.2598
56.0775
47.7481
39.7953
32.5615
26.2837
21.0514
16.8302
13.5206
10.9708
8.97878
7.38764
6.1142
5.10591
4.31444
3.69412
3.20647
2.81891
2.50484
2.24225
2.01123
1.79078
1.55401
1.26826
0.891744
0.371083
48.3922
48.8273
49.8863
51.5868
53.9206
56.9085
60.5513
64.7626
69.2916
73.6332
76.9409
78.0467
75.8588
70.2585
62.4812
54.0234
45.6562
37.7369
30.6205
24.5527
19.5741
15.6187
12.5975
10.3104
8.5121
7.05977
5.89049
4.95541
4.20594
3.60195
3.11382
2.7172
2.39071
2.11599
1.87656
1.65621
1.43203
1.17203
0.831093
0.350543
46.8218
47.2089
48.1531
49.6867
51.8255
54.6256
58.1434
62.373
67.1533
72.0243
75.9996
77.3803
74.2429
66.7483
57.7135
49.104
40.9378
33.172
26.2843
20.5676
16.0013
12.5665
10.2587
8.45745
6.85721
5.50508
4.44848
3.64611
3.03389
2.56302
2.20054
1.92189
1.70917
1.54681
1.42128
1.32162
1.23155
1.12081
0.928085
0.521713
44.5561
44.8623
45.6176
46.8603
48.6368
51.0355
54.1754
58.1561
62.9745
68.3333
73.1987