/*--------------------------------*- C++ -*----------------------------------*\
| =========                 |                                                 |
| \\      /  F ield         | OpenFOAM: The Open Source CFD Toolbox           |
|  \\    /   O peration     | Version:  2306                                  |
|   \\  /    A nd           | Website:  www.openfoam.com                      |
|    \\/     M anipulation  |                                                 |
\*---------------------------------------------------------------------------*/
FoamFile
{
    version     2.0;
    format      ascii;
    arch        "LSB;label=32;scalar=64";
    class       surfaceScalarField;
    location    "0.8";
    object      phi;
}
// * * * * * * * * * * * * * * * * * * * * * * * * * * * * * * * * * * * * * //

dimensions      [0 3 -1 0 0 0 0];

oriented        oriented;

internalField   nonuniform List<scalar> 
338621
(
24.9952
0.00213086
0.00135158
24.9877
0.00470154
0.00278879
24.9757
0.00760308
0.00442728
24.9586
0.0107003
0.00641591
24.9355
0.014109
0.00907004
24.9028
0.0202443
0.0125572
24.8561
0.0298948
0.0169893
24.7929
0.040681
0.0226675
24.7307
0.0326988
0.0298059
24.6871
0.00574525
0.0382757
24.6582
-0.0184141
0.0478769
24.5836
0.0171199
0.0580231
24.612
-0.0959385
0.0682615
24.7428
-0.207799
0.0776244
24.7856
-0.127788
0.0855609
24.8191
-0.125052
0.091862
24.8491
-0.126435
0.0967443
24.8731
-0.124691
0.100786
24.8929
-0.123876
0.104086
24.9195
-0.133421
0.106886
24.9489
-0.138486
0.109054
24.971
-0.133007
0.110906
24.9876
-0.129155
0.112522
25.0009
-0.127183
0.113795
25.0121
-0.126025
0.114874
25.0213
-0.125005
0.115767
25.0293
-0.124415
0.11641
25.0362
-0.123682
0.11681
25.042
-0.122956
0.117084
25.0473
-0.122502
0.11723
25.0521
-0.122082
0.117255
25.0567
-0.121727
0.117158
25.061
-0.121385
0.11707
25.0651
-0.121076
0.116987
25.0691
-0.120835
0.116879
25.0732
-0.120978
0.116781
25.0776
-0.121018
0.116651
25.0822
-0.121148
0.116563
25.0871
-0.12142
0.116475
-0.122105
0.116159
24.9951
0.00426515
0.00132199
24.9876
0.00956293
0.00269787
24.9751
0.0157539
0.00431582
24.9579
0.0216706
0.00628399
24.9347
0.0284489
0.00891123
24.9052
0.0375674
0.0122862
24.8694
0.04903
0.0167602
24.8235
0.064286
0.0225204
24.7586
0.0680206
0.0298396
24.6834
0.0425533
0.0387519
24.6398
-0.0235708
0.0491784
24.6258
-0.0286531
0.0602545
24.6643
-0.205783
0.0720021
24.7489
-0.374464
0.0825379
24.8306
-0.300112
0.091106
24.9004
-0.292333
0.0976913
24.9539
-0.282491
0.102727
24.9967
-0.274269
0.106788
25.0419
-0.27914
0.110101
25.0756
-0.279917
0.112702
25.0954
-0.273047
0.114739
25.1091
-0.263036
0.116333
25.118
-0.255831
0.11777
25.1247
-0.252855
0.118972
25.1294
-0.250774
0.11999
25.133
-0.249321
0.120778
25.135
-0.247882
0.121395
25.1367
-0.247181
0.121807
25.1383
-0.246602
0.122073
25.1394
-0.245819
0.122217
25.1404
-0.245321
0.122262
25.141
-0.244628
0.122235
25.142
-0.244517
0.122188
25.143
-0.244239
0.122127
25.1442
-0.244099
0.122056
25.1456
-0.244396
0.122022
25.1473
-0.244662
0.121932
25.1494
-0.245158
0.121886
25.1524
-0.246116
0.121785
-0.246667
0.121488
24.9954
0.00609667
0.00125427
24.9879
0.0145454
0.00256332
24.9761
0.0235192
0.00407398
24.9582
0.033554
0.00602662
24.9339
0.0442457
0.00856233
24.9026
0.0569953
0.0118833
24.8626
0.0728228
0.0163849
24.8131
0.0916269
0.0222534
24.7438
0.107632
0.0299674
24.6451
0.101575
0.039833
24.5674
0.00589394
0.0519041
-0.00541284
0.00616605
-0.00416336
24.6632
-0.038105
0.0657486
-0.0578411
-0.0369303
-0.0568678
24.5554
-0.0105756
0.0787322
-0.0949406
0.0223514
-0.093197
24.7293
-0.181809
0.0908208
-0.123645
-0.211502
-0.121779
24.8248
-0.128651
0.0996632
-0.121245
-0.126388
-0.118716
24.8876
-0.1176
0.106079
-0.115508
-0.114949
-0.113144
24.9428
-0.113361
0.110924
-0.113413
-0.111267
-0.11066
25.009
-0.115522
0.114835
-0.114368
-0.113316
-0.112228
25.0519
-0.111733
0.117966
-0.110298
-0.109665
-0.108394
25.0773
-0.107872
0.120179
-0.106841
-0.105916
-0.104945
25.095
-0.412254
0.121507
25.1082
-0.398685
0.122432
25.116
-0.387131
0.123512
25.1215
-0.383062
0.124617
25.1257
-0.380499
0.12555
25.1284
-0.378243
0.126206
25.1299
-0.375944
0.126604
25.1309
-0.375017
0.12679
25.131
-0.373515
0.126806
25.1314
-0.372861
0.126705
25.1313
-0.371776
0.126525
25.1314
-0.371034
0.126309
25.1313
-0.370433
0.126041
25.1314
-0.37024
0.125883
25.1314
-0.369765
0.125678
25.1315
-0.370065
0.125545
25.1321
-0.37069
0.12537
25.1332
-0.371449
0.125229
25.1345
-0.372445
0.125035
-0.373517
0.124698
24.9957
0.00824235
0.00115183
24.9891
0.0188346
0.00236105
24.9774
0.0314575
0.00373803
24.9606
0.0447617
0.00559083
24.9361
0.0608537
0.00796024
24.9016
0.0803646
0.0111502
24.8559
0.103094
0.0155134
24.7975
0.128828
0.0213678
24.7304
0.145489
0.0293393
6.14112
0.0374281
0.0401235
0.0547911
0.0386483
0.0550048
6.16316
6.14048
6.16129
6.12338
0.0177692
0.00586948
-6.11011
6.09777
-0.033465
0.00772277
-6.10154
6.12293
-0.0415449
0.00959848
-6.11521
6.14225
-0.220319
0.011489
-6.16124
6.1759
-0.156122
0.0128293
-6.18963
6.2008
-0.14239
0.0136155
-6.21254
6.22722
-0.14228
0.0142353
-6.23943
6.24683
-0.137685
0.0147575
-6.25272
6.25796
-0.132135
0.0151502
-6.26236
6.26635
-0.127294
0.0154276
25.1079
-0.13933
0.127164
-0.140355
-0.138035
-0.139526
-6.26995
-6.27478
-6.27036
-6.27502
25.1126
-0.529623
0.126283
25.1144
-0.516181
0.12721
25.1161
-0.513162
0.128406
25.1157
-0.509454
0.129341
25.1137
-0.506224
0.129961
25.1115
-0.504073
0.130315
25.1083
-0.502275
0.130449
25.1045
-0.500129
0.130407
25.1003
-0.49885
0.130238
25.096
-0.497425
0.129983
25.0913
-0.496083
0.129681
25.0864
-0.494788
0.129321
25.0814
-0.494367
0.129076
25.0765
-0.493617
0.128759
25.0713
-0.493398
0.128489
25.0662
-0.493722
0.12814
25.0612
-0.494145
0.127716
25.0573
-0.495698
0.127196
-0.496303
0.126479
24.9973
0.0087507
0.0010135
24.9914
0.0226359
0.00208353
24.9817
0.0378777
0.00329798
24.9663
0.0552331
0.00494826
24.9435
0.0766756
0.00705887
24.9101
0.103943
0.0099143
24.86
0.139391
0.0138226
24.7855
0.184157
0.0192573
6.1711
0.234754
0.0267185
6.16376
6.17096
6.16377
6.15489
0.0496448
0.0039968
6.1291
0.00562333
-6.15728
0.0204067
0.0120341
0.0118788
0.0204924
-0.0422584
-6.07601
6.0414
0.0076331
-0.0017807
0.00438612
0.00410316
-0.00170354
0.0219856
-6.04063
6.05877
0.00985622
0.0293338
-0.0399824
-0.040089
-0.0189688
0.0417208
-6.11123
6.13679
0.0123814
-0.0519868
-0.0666747
-0.104535
-0.0524417
0.2377
-6.1698
6.18254
0.013614
-0.0507196
-0.0546188
-0.0539226
-0.0511127
0.184022
-6.19505
6.20921
0.0140452
-0.0507285
-0.0501055
-0.0499671
-0.0508602
0.173447
-6.22335
6.23554
0.0144442
-0.0484563
-0.0485997
-0.0484033
-0.0486915
0.167496
-6.24537
6.25268
0.0148249
-0.0454337
-0.0455692
-0.0452779
-0.0457337
0.15986
-6.25902
6.2635
0.0151019
-0.0427166
-0.0430976
-0.0428093
-0.0429946
0.152025
-6.26747
6.26948
0.0152582
-0.0404755
-0.040984
-0.0407658
-0.0406699
0.145624
-6.27248
6.27461
-0.157242
0.0157783
25.0633
-0.609627
0.112244
-6.27573
-6.26998
-6.27645
-6.2734
25.0386
-0.60303
0.111577
25.011
-0.596659
0.111126
24.9829
-0.591411
0.110068
24.956
-0.588257
0.108872
24.9303
-0.586081
0.107721
24.9057
-0.584277
0.106634
24.8828
-0.582852
0.105622
24.8607
-0.58151
0.104677
24.84
-0.580431
0.1038
24.8204
-0.579506
0.102986
24.802
-0.578569
0.1022
24.7839
-0.577886
0.101551
24.7669
-0.577481
0.1009
24.7505
-0.577216
0.100258
24.7346
-0.577411
0.0995371
24.7199
-0.578083
0.0986486
24.7064
-0.579756
0.09753
-0.583176
0.0960452
24.9999
0.00732587
0.000840802
24.9966
0.0242265
0.00174394
24.989
0.0426593
0.00276637
24.9773
0.0629296
0.00407799
24.9596
0.0885083
0.00581498
24.9325
0.122979
0.00810796
24.8893
0.171445
0.011189
24.8168
0.241263
0.0155107
6.1706
0.348847
0.021355
6.17017
6.1706
6.17001
-0.0656737
6.14488
0.0882043
0.00320066
-0.01982
-1.52752
1.52234
0.0243943
0.000601208
-0.0197338
-1.50402
1.49184
0.0311717
0.000740993
-1.46813
0.0519111
1.47797
-0.0628693
0.00111428
-1.52943
0.0844992
1.53811
-0.0945201
0.00133946
-1.53658
0.0615283
-0.0654831
0.00175947
1.53877
-1.54848
0.0592199
-0.0635797
0.00168707
1.55115
0.0561376
-1.55718
1.5587
-0.0594121
0.00175508
0.0515728
-1.56173
1.56228
-0.0540971
0.00197209
0.0482885
-1.56289
1.56295
-0.0504991
0.00214794
0.0453594
-1.56226
1.56185
-0.0471298
0.0021779
-1.55508
0.170767
6.16321
-0.16538
0.017775
-1.53931
-1.55487
-1.53712
23.8992
-0.681403
0.0598985
-6.10752
-5.80266
-6.13328
-5.8439
23.9011
-0.665351
0.0605038
23.9014
-0.657026
0.0600601
23.9027
-0.651231
0.058462
23.9054
-0.647438
0.0565319
23.9095
-0.644761
0.0545712
23.9152
-0.642672
0.0526744
23.9223
-0.640858
0.0508904
23.9308
-0.639208
0.0492502
23.9402
-0.637637
0.0477739
23.9503
-0.63609
0.0464713
23.9611
-0.634685
0.0453178
23.9722
-0.633319
0.0443589
23.9832
-0.632001
0.0434956
23.9943
-0.630956
0.0426698
24.0051
-0.630016
0.041777
24.0156
-0.629279
0.0406682
24.0255
-0.62878
0.0391566
-0.628211
0.03706
25.003
0.00345447
0.000666471
25.0035
0.0223514
0.00134924
25.0006
0.0434279
0.00213776
24.9949
0.0655945
0.00306962
24.9861
0.093074
0.00426635
24.9725
0.130761
0.00581982
24.9527
0.183442
0.00775039
24.9215
0.262229
0.0102308
6.21309
0.3891
0.0131941
6.22118
6.21283
6.22098
-0.106551
6.19766
0.120096
0.00189415
-0.039522
-1.542
1.53584
0.045353
0.000319631
-0.0826074
-1.50647
1.488
0.100779
0.000292327
0.00434447
-0.0746466
0.0748224
-0.00455041
3.0107e-05
-0.0213909
0.000448969
0.0209029
2.96221e-06
3.61378e-05
-0.23024
0.0153526
-0.0260571
0.00182389
0.239121
-1.17575
0.0547757
-0.0729661
-0.000794937
1.19473
0.0495518
-1.23754
1.24777
-0.0571998
-0.0025831
0.0497934
-1.28008
1.29075
-0.0575189
-0.0029462
0.0486123
-1.31802
1.32617
-0.0542338
-0.00252757
0.0473996
-1.34627
1.35321
-0.0525561
-0.00178421
-1.39423
0.19895
5.83191
-0.217235
-0.00959104
-1.49634
-1.41452
-1.49894
24.0034
-0.648941
-0.0814001
-5.87211
-6.16459
-5.75659
-6.16112
24.0408
-0.623318
-0.0794302
24.074
-0.612175
-0.0780791
24.1048
-0.60484
-0.0771602
24.1327
-0.598811
-0.0765284
24.158
-0.594061
-0.0760695
24.1815
-0.590344
-0.0757916
24.2035
-0.587255
-0.0755602
24.2243
-0.584692
-0.0753478
24.2443
-0.582536
-0.0750987
24.2637
-0.580719
-0.0747995
24.2827
-0.579296
-0.0743628
24.3014
-0.578154
-0.0738748
24.3199
-0.577237
-0.0732607
24.338
-0.576439
-0.0726331
24.356
-0.575897
-0.0720788
24.3736
-0.575243
-0.0716962
24.3906
-0.574142
-0.0716406
-0.571622
-0.0719651
25.0047
-0.00139066
0.000458196
25.0098
0.0162249
0.000944267
25.0147
0.0371341
0.0014614
25.0185
0.0596976
0.00203653
25.0203
0.088621
0.00264672
25.0253
0.122425
0.00335043
25.0373
0.167384
0.00400027
25.0633
0.23184
0.00441072
6.27419
0.333187
0.00425219
6.28194
6.27452
6.28421
-0.112094
6.28195
0.103883
0.000450533
-0.0447264
-1.57791
1.57962
0.042998
2.0344e-05
-0.0841861
-1.59823
1.61325
-0.000208088
0.069379
-0.0257491
-1.7128
1.75145
-0.00131463
0.0562213
-0.0209411
-0.0258558
-0.0210069
0.0998258
-1.71344
1.68404
-0.00149717
-0.0689275
0.102176
-1.60957
-0.00135514
1.59883
-0.0900798
0.0772234
-1.58418
-0.00153201
1.5813
-0.0728072
0.0556771
-1.57688
1.57603
-0.0531553
-0.0016739
0.0563742
-1.57449
1.57273
-0.0528697
-0.00174884
0.0508222
-1.57239
1.57174
-0.0483932
-0.00177276
0.0472349
-1.57072
1.57018
-0.0449403
-0.00175949
-1.56775
0.17698
6.26433
-0.157047
-0.0146186
-1.56726
-1.56737
-1.56727
25.067
-0.535136
-0.107938
-6.26778
-6.2677
-6.26916
-6.26819
25.0683
-0.51712
-0.107506
25.0664
-0.503074
-0.107181
25.0637
-0.495243
-0.106986
25.0616
-0.489577
-0.107091
25.0601
-0.485141
-0.107388
25.059
-0.481426
-0.10788
25.0582
-0.477972
-0.108422
25.0579
-0.475429
-0.108981
25.0578
-0.472942
-0.1095
25.0577
-0.470594
-0.109998
25.0577
-0.469034
-0.110306
25.0577
-0.467554
-0.110603
25.0573
-0.466053
-0.110782
25.0572
-0.465312
-0.11099
25.0571
-0.464484
-0.111285
25.0571
-0.46358
-0.111736
25.0577
-0.462231
-0.112443
-0.460546
-0.113331
25.0056
-0.00628852
0.000255816
25.0139
0.00740663
0.000550317
25.0267
0.0234993
0.000820368
25.0378
0.0475244
0.00103572
25.053
0.0722973
0.00114508
25.0763
0.0980273
0.00104475
25.1141
0.128971
0.000569824
25.1773
0.169298
-0.000727692
6.32031
0.231768
-0.00333139
6.3184
6.32457
6.31868
-0.089088
6.33639
0.0737154
-0.000717814
-0.0333357
6.4129
0.0884359
-0.00164802
-0.0345347
-0.0335358
-0.0342193
-6.36405
-0.0335345
6.51676
0.0766836
-0.00355027
-0.0262622
-0.0335609
-0.026341
-6.4702
-0.00748611
-6.54746
6.51405
-0.00468783
-0.00649792
0.0148774
-0.00788908
0.0450823
0.045163
-6.5362
6.51449
-0.122154
-0.00942195
0.038898
0.0359059
0.0333013
0.0548397
-6.44966
6.41174
-0.17623
-0.0114805
0.055392
0.0571791
0.0582064
0.0558722
-6.37174
6.33978
-0.173588
-0.0128495
0.0545387
0.0548374
0.0531424
0.0458909
-6.32201
6.31119
-0.154914
-0.0137581
0.0449378
0.0446701
0.0440109
0.0438434
-6.30284
6.29717
-0.153945
-0.0143148
0.0436227
0.0433337
0.043143
0.0409134
-6.29278
6.28736
-0.141447
-0.0145892
0.0404301
0.040358
0.0397602
0.0380719
-6.28296
6.27729
-0.129778
-0.0146801
0.0376143
0.0375126
0.0369219
0.14086
-6.27545
6.27326
-0.123915
-0.0147566
25.07
-0.403587
-0.120588
-6.27037
-6.27039
-6.2705
-6.2697
25.0612
-0.387936
-0.120412
25.0568
-0.378166
-0.1205
25.0539
-0.371631
-0.120634
25.0521
-0.36707
-0.120726
25.0511
-0.363399
-0.120712
25.0508
-0.360528
-0.120585
25.0512
-0.35805
-0.120358
25.0517
-0.3559
-0.120053
25.0525
-0.354
-0.119695
25.0533
-0.352094
-0.119344
25.0542
-0.350904
-0.118968
25.0546
-0.349393
-0.118594
25.0555
-0.34864
-0.11833
25.0561
-0.347709
-0.11819
25.0565
-0.346689
-0.118199
25.0575
-0.346166
-0.118425
25.0596
-0.345417
-0.118936
-0.344827
-0.119765
25.0061
-0.0111449
0.000136327
25.0158
-0.00247561
0.000258151
25.0244
0.0145491
0.000299559
25.0407
0.030958
0.00024109
25.0671
0.045934
-7.50338e-05
25.1004
0.0654882
-0.000783324
25.1478
0.0836249
-0.002118
25.2142
0.107347
-0.00454217
25.3231
0.131448
-0.00872623
25.4285
0.145786
-0.0156099
-0.0614485
-0.0572257
-0.0590204
-0.0579472
25.5775
0.134268
-0.0261314
-0.0611706
-0.064747
-0.0627189
-0.0686599
25.713
0.0575623
-0.0409373
-0.042771
-0.0289924
-0.0471786
-0.0334773
25.5926
-0.153319
-0.0584169
0.0203318
0.123197
0.0181118
0.17012
25.5007
-0.23474
-0.0766648
0.0824378
0.116113
0.0975732
0.106654
25.4321
-0.245445
-0.0915971
0.0820745
0.147352
0.0304644
0.145434
25.347
-0.349087
-0.102354
0.134007
0.136785
0.132046
0.133584
25.2637
-0.318511
-0.109148
0.127466
0.13105
0.124741
0.127826
25.1977
-0.328646
-0.113515
0.130443
0.127472
0.126852
0.123435
25.1541
-0.308009
-0.116332
0.120519
0.117479
0.116894
0.113114
25.1294
-0.289582
-0.118138
0.110124
0.110021
0.105288
0.107012
25.109
-0.275669
-0.119203
0.105668
0.105067
0.102896
0.101678
25.0911
-0.266112
-0.119505
25.0801
-0.25714
-0.119779
25.073
-0.250884
-0.120177
25.068
-0.24601
-0.120636
25.0643
-0.242453
-0.120953
25.0622
-0.240075
-0.121184
25.0604
-0.237369
-0.121311
25.0594
-0.2357
-0.121337
25.0585
-0.233762
-0.12128
25.0582
-0.232513
-0.121153
25.0583
-0.2312
-0.12099
25.058
-0.229783
-0.120824
25.0582
-0.229007
-0.120604
25.0579
-0.227879
-0.120508
25.0578
-0.227127
-0.120479
25.0584
-0.226675
-0.120588
25.0594
-0.226243
-0.120883
25.0604
-0.224995
-0.121415
-0.2241
-0.1222
25.0064
-0.0157087
2.43704e-05
25.0092
-0.00537219
4.1674e-05
25.0167
0.00718609
-5.93208e-05
25.0359
0.0119739
-0.00029092
25.0611
0.0215732
-0.000873291
25.0903
0.0382556
-0.00198316
25.1381
0.0395677
-0.00384441
25.1993
0.0528257
-0.00685713
25.2787
0.063545
-0.0116693
25.375
0.0680171
-0.0188556
25.4828
0.0550068
-0.0289556
25.5643
0.0178864
-0.0423149
25.543
-0.0749619
-0.0576856
25.5295
-0.148747
-0.0730807
25.4072
-0.037359
-0.0862355
25.325
-0.170836
-0.0963965
25.2752
-0.165538
-0.103259
25.2137
-0.159103
-0.108088
25.1684
-0.151402
-0.111356
25.1359
-0.143376
-0.113663
25.1118
-0.136234
-0.11531
25.093
-0.130915
-0.116357
25.0796
-0.126517
-0.117158
25.0699
-0.123395
-0.11778
25.0631
-0.120941
-0.118295
25.0585
-0.119262
-0.11855
25.0548
-0.117703
-0.118673
25.0527
-0.116626
-0.118658
25.0514
-0.115948
-0.118448
25.0507
-0.114883
-0.118145
25.0503
-0.114417
-0.117756
25.05
-0.113542
-0.117329
25.0503
-0.113234
-0.11686
25.0503
-0.112556
-0.116436
25.0509
-0.112341
-0.1161
25.0513
-0.111729
-0.115857
25.0521
-0.111663
-0.115748
25.053
-0.111389
-0.115825
25.0551
-0.110944
-0.116147
-0.111468
-0.116783
24.9867
-1.43215e-05
24.9813
-1.06003e-05
24.9887
-0.000185632
25.0011
-0.000438615
25.0238
-0.0011652
25.0643
-0.00238813
25.1082
-0.00441393
25.1685
-0.00764998
25.2444
-0.0126459
25.3318
-0.0197573
25.4156
-0.0293441
25.4744
-0.0415096
25.4539
-0.0551978
25.3734
-0.0689046
25.4165
-0.0809838
25.3363
-0.0909388
25.2685
-0.0979413
25.2121
-0.102789
25.1669
-0.106222
25.1323
-0.108729
25.1067
-0.11061
25.0877
-0.111963
25.0742
-0.112946
25.0644
-0.113623
25.0577
-0.114173
25.0529
-0.114488
25.0498
-0.114643
25.0479
-0.114704
25.0465
-0.114518
25.0459
-0.114265
25.0454
-0.113957
25.0455
-0.11356
25.0454
-0.113133
25.0456
-0.112759
25.0457
-0.112512
25.0464
-0.112346
25.047
-0.112302
25.048
-0.112435
25.0499
-0.112806
-0.113497
24.996
0.00102418
0.00261276
24.9897
0.00379816
0.00533796
24.9793
0.00642276
0.00850251
24.9637
0.00965828
0.0124247
24.9428
0.0126701
0.017464
24.9139
0.0176625
0.0240731
24.8724
0.0263181
0.0326702
24.8152
0.0368065
0.0436841
24.7594
0.0290575
0.0574174
24.7226
0.00218232
0.0741463
24.6966
-0.0176533
0.0930773
24.6331
0.00987679
0.113526
24.6612
-0.0917489
0.133989
24.7793
-0.191687
0.153079
24.8131
-0.115696
0.16915
24.8382
-0.113841
0.181763
24.8617
-0.117477
0.191483
24.8804
-0.116769
0.199226
24.8961
-0.116993
0.205505
24.9221
-0.129821
0.210685
24.9482
-0.13197
0.214887
24.9684
-0.127842
0.218458
24.9845
-0.125114
0.221505
24.998
-0.123782
0.224055
25.0093
-0.122586
0.226132
25.0192
-0.121964
0.227762
25.0277
-0.121126
0.228985
25.035
-0.120354
0.22984
25.0416
-0.119885
0.230418
25.0475
-0.119471
0.230791
25.0526
-0.118856
0.230995
25.0569
-0.118296
0.23109
25.0612
-0.118307
0.231098
25.0654
-0.118374
0.231136
25.0692
-0.118007
0.231125
25.0731
-0.118273
0.231174
25.077
-0.118359
0.231107
25.0811
-0.118609
0.231081
25.0859
-0.119202
0.230876
-0.119732
0.229943
24.9961
0.00214928
0.00254726
24.9897
0.00767049
0.00520918
24.9787
0.0134998
0.00831576
24.9631
0.0194516
0.0121902
24.9417
0.0259654
0.0171913
24.9145
0.0336122
0.0237943
24.8817
0.0437778
0.0324537
24.8393
0.0585979
0.0437145
24.7764
0.0644773
0.0580749
24.7002
0.0423
0.0758987
24.656
-0.019816
0.0967604
24.5929
0.0150957
0.119751
24.6279
-0.195863
0.142822
24.7611
-0.404866
0.16407
24.8438
-0.287241
0.181302
24.9131
-0.279228
0.194502
24.9639
-0.269732
0.204635
25.0037
-0.26227
0.212548
25.0481
-0.270176
0.218918
25.0793
-0.272379
0.223989
25.0972
-0.263369
0.228091
25.1099
-0.255783
0.231567
25.1183
-0.250411
0.234569
25.1247
-0.248213
0.237
25.1299
-0.246702
0.238906
25.1334
-0.245074
0.240369
25.1357
-0.2436
0.241482
25.1379
-0.243096
0.242308
25.1395
-0.242271
0.242913
25.1404
-0.241583
0.24335
25.1415
-0.241276
0.243659
25.1426
-0.241093
0.243879
25.1432
-0.240791
0.244089
25.1438
-0.241101
0.244256
25.145
-0.241552
0.244415
25.1458
-0.241661
0.244553
25.1472
-0.242459
0.244642
25.1493
-0.243459
0.244651
25.1515
-0.24414
0.244522
-0.245393
0.243617
24.9961
0.00339365
0.00241692
24.9898
0.0115614
0.00495601
24.9788
0.0206304
0.0079385
24.9626
0.0301036
0.0116861
24.9401
0.0406583
0.0165711
24.9104
0.0523112
0.0230981
24.8726
0.0664809
0.031825
24.8261
0.0842921
0.0434603
24.7603
0.102
0.0588243
24.6649
0.0994992
0.0786452
24.5854
0.00634332
0.103108
-0.00307489
0.00693287
-0.000910809
24.7172
-0.0361513
0.130674
-0.0564537
-0.0341046
-0.053707
24.575
0.0235316
0.158141
-0.0930673
0.0268245
-0.0890669
24.7397
-0.212677
0.183127
-0.122176
-0.208445
-0.117315
24.8335
-0.126833
0.201375
-0.119207
-0.122078
-0.113826
24.8951
-0.115778
0.214541
-0.113955
-0.110952
-0.108428
24.9487
-0.112354
0.22455
-0.111589
-0.107173
-0.106085
25.0129
-0.11428
0.232352
-0.113232
-0.109042
-0.107829
25.0541
-0.110956
0.238524
-0.109905
-0.105952
-0.105474
25.0792
-0.107987
0.243292
-0.106715
-0.103814
-0.102235
25.0971
-0.406842
0.246993
25.1094
-0.396007
0.250276
25.1174
-0.388001
0.25306
25.123
-0.38512
0.255841
25.1271
-0.38292
0.257722
25.1296
-0.380632
0.259231
25.1312
-0.378429
0.259751
25.1317
-0.376899
0.260165
25.1316
-0.375693
0.260326
25.1319
-0.375543
0.260334
25.1313
-0.374407
0.260261
25.1309
-0.374552
0.260172
25.1311
-0.374842
0.259865
25.1307
-0.374974
0.260106
25.1304
-0.37566
0.260129
25.1306
-0.376463
0.260175
25.1309
-0.377613
0.260184
25.1315
-0.378938
0.260091
25.133
-0.380457
0.259852
-0.381904
0.258865
24.9969
0.00439907
0.00221928
24.9909
0.0154495
0.00456644
24.98
0.0278736
0.00733637
24.9639
0.041019
0.010842
24.9411
0.0560867
0.0154614
24.9083
0.0748173
0.0217125
24.8636
0.0966446
0.0302825
24.8055
0.122036
0.0420357
24.7373
0.141653
0.0582117
6.14278
0.0383147
0.0803867
0.05403
0.0386612
0.0545141
6.16258
6.14337
6.16245
-0.0116415
6.12529
0.0178494
0.0176735
-0.0154411
-6.11297
6.1007
-0.0317641
0.0234045
-0.0193161
-6.10436
6.09686
0.0211389
0.0292914
-0.0230918
-6.11224
6.14457
-0.256813
0.0349747
-0.0257989
-6.16309
6.1776
-0.154536
0.0390354
-0.0275086
-6.19137
6.20271
-0.14127
0.0416586
-0.0287553
-6.21409
6.22866
-0.141887
0.0436705
-0.0297493
-6.24159
6.24885
-0.137147
0.0453018
-0.0305146
-6.25467
6.25987
-0.132221
0.0465475
-0.0310315
-6.26357
6.2675
-0.12841
0.0475014
25.1085
-0.14238
0.271764
-0.143268
-0.141791
-0.140212
-6.27122
-6.27535
-6.27077
-6.27499
25.1153
-0.552149
0.275616
25.1175
-0.539839
0.276833
25.1186
-0.536793
0.278961
25.1175
-0.533133
0.280583
25.1143
-0.529466
0.282014
25.1106
-0.526861
0.282393
25.1061
-0.524491
0.282565
25.1009
-0.522536
0.282395
25.0951
-0.521496
0.282003
25.0896
-0.52035
0.281493
25.0838
-0.52004
0.280955
25.0778
-0.519681
0.280173
25.0719
-0.520018
0.279974
25.066
-0.5205
0.279488
25.0604
-0.521445
0.279114
25.0544
-0.522068
0.278569
25.0488
-0.523435
0.27784
25.0444
-0.525658
0.276775
-0.527026
0.274743
24.9985
0.0039127
0.00195283
24.9935
0.0185452
0.00402937
24.984
0.0341643
0.00648287
24.9694
0.0510164
0.00959604
24.9474
0.0715859
0.0137199
24.9152
0.0979278
0.0190914
24.8664
0.132304
0.0271739
24.7935
0.176363
0.038138
6.17348
0.22765
0.0537977
6.16621
6.1743
6.1666
-0.00793941
6.15812
0.0495174
0.0121052
-0.011249
6.13186
0.0172055
-6.16082
0.0203185
0.0115631
0.0203586
0.011432
-0.0406936
-0.015374
-6.07854
6.04455
0.0236723
-0.00155847
0.00377967
-0.0018559
0.00401024
0.0213487
-0.0199906
-6.04259
6.05614
0.0308002
0.0523053
-0.0402501
0.0517537
-0.039793
-0.0483808
-0.0246537
-6.09674
6.13812
0.037447
-0.0512786
-0.129163
-0.0518749
-0.128632
0.30674
-0.027066
-6.16937
6.18145
0.0406536
-0.0502916
-0.0537431
-0.0508007
-0.053207
0.182373
-0.0280385
-6.19585
6.21084
0.042484
-0.0508431
-0.0506072
-0.0513448
-0.0501432
0.173447
-0.0287906
-6.22521
6.23743
0.0440979
-0.0485805
-0.0491509
-0.0491411
-0.0486312
0.167846
-0.0294567
-6.24718
6.25439
0.0455043
-0.0454801
-0.0460899
-0.0462479
-0.0455587
0.160022
-0.0299269
-6.26082
6.26508
0.0466012
-0.0432622
-0.043746
-0.0436481
-0.0433212
0.153004
-0.0300842
-6.26909
6.27106
0.0473773
-0.0415884
-0.0418061
-0.0414825
-0.0416066
0.147229
-6.27318
-0.0292346
6.27481
-0.162944
0.0481649
25.0527
-0.688371
0.283225
-6.27501
-6.26803
-6.27525
-6.26921
25.0232
-0.680025
0.281281
24.9928
-0.673194
0.277987
24.9621
-0.666586
0.274149
24.9328
-0.661284
0.269975
24.9045
-0.65643
0.265605
24.8779
-0.651706
0.260492
24.8528
-0.647424
0.255627
24.8286
-0.643654
0.250955
24.8061
-0.640606
0.246618
24.7849
-0.638352
0.242478
24.7649
-0.636772
0.239318
24.7458
-0.635668
0.236307
24.7278
-0.635347
0.233693
24.7106
-0.635304
0.231353
24.6947
-0.635695
0.229056
24.68
-0.63661
0.226545
24.6668
-0.638551
0.22356
-0.642314
0.219516
25.0021
0.000342435
0.00165605
24.9998
0.0192024
0.00336663
24.9921
0.0392474
0.00539534
24.9801
0.0592271
0.00795012
24.9626
0.0836373
0.0113035
24.9366
0.116733
0.0153417
24.8944
0.163775
0.0221305
24.823
0.232441
0.0309251
6.17255
0.339648
0.0437662
6.17162
6.17292
6.17176
-0.00630973
-0.0644957
6.14694
0.086609
0.00983975
-0.00205822
-0.0194047
-1.52791
1.52264
0.0240109
0.00273423
-0.00297021
-0.0189126
-1.50405
1.49141
0.0306918
0.00382746
-0.00420515
-1.46872
0.0523367
1.4787
-0.0635155
0.00538124
-0.00584763
-1.52835
0.153542
1.53996
-0.166455
0.00712304
-0.00721141
-1.53632
0.059395
-0.0616386
1.53812
0.00764185
-1.54815
-0.00664488
0.0593657
-0.0634593
0.00765333
1.55124
-0.00600476
0.056627
-1.55765
1.55923
-0.0597812
0.00757531
-0.00539533
0.0521906
-1.56233
1.56286
-0.0547622
0.00743279
-0.00476148
0.049139
-1.56335
1.56336
-0.0514529
0.00706766
-0.00412524
0.0464293
-1.56253
1.56207
-0.0482906
0.00645761
-1.55444
-0.0119129
0.180312
6.15234
-0.182427
0.0390991
-1.53698
-1.55287
-1.53312
23.8057
-0.800482
0.138311
-6.09333
-5.79538
-6.09482
-5.7884
23.8227
-0.778785
0.142216
23.8376
-0.769799
0.141763
23.8517
-0.760698
0.138515
23.8648
-0.751769
0.133887
23.8771
-0.74287
0.128698
23.8896
-0.734201
0.122685
23.9022
-0.726082
0.116925
23.9152
-0.718845
0.111454
23.9286
-0.712614
0.106438
23.9424
-0.707423
0.101736
23.9561
-0.703307
0.0980895
23.9702
-0.700053
0.0947383
23.984
-0.697539
0.0918572
23.9977
-0.695612
0.0892585
24.0112
-0.694131
0.0867049
24.0244
-0.692988
0.0838303
24.0371
-0.69209
0.080058
-0.691265
0.0743009
25.0089
-0.000837598
0.00126735
25.0095
0.017333
0.00260093
25.006
0.0407649
0.00413087
24.9991
0.0632141
0.00599199
24.989
0.0896595
0.00833916
24.9754
0.125361
0.0108792
24.9558
0.175761
0.0153535
24.9253
0.252658
0.020527
6.21359
0.379299
0.0275916
6.2218
6.21371
6.22216
-0.00377904
-0.104672
6.19806
0.118038
0.00595408
-0.00115083
-0.0392977
-1.54189
1.53574
0.0450596
0.00154383
-0.00128026
-0.0822248
-1.50557
1.487
0.10023
0.00184188
-8.06515e-05
0.00456071
-0.0747919
0.0750421
-0.00483633
0.000105489
-0.00960556
-0.194294
0.0107782
-0.0242545
0.00982663
0.207551
-1.09699
-0.00502115
0.0425003
-0.0670667
-0.00686536
1.13344
-0.00294943
0.0447817
-1.21369
1.2318
-0.0548211
-0.00512213
-0.0022667
0.0517657
-1.2797
1.29396
-0.060046
-0.00371126
-0.00188038
0.0531772
-1.32802
1.33756
-0.0583132
-0.00252322
-0.00118779
0.0528428
-1.35994
1.36741
-0.0573031
-0.00181942
-1.4077
0.0134796
0.218375
5.86795
-0.228848
-0.0325791
-1.50077
-1.42613
-1.50377
24.172
-0.705194
-0.214178
-5.91318
-6.17365
-5.87294
-6.17472
24.2029
-0.678176
-0.210932
24.2286
-0.668295
-0.205257
24.2511
-0.660409
-0.199959
24.2708
-0.653103
-0.194946
24.2888
-0.646696
-0.190231
24.306
-0.64125
-0.185944
24.3231
-0.636516
-0.182146
24.3402
-0.632465
-0.178811
24.3573
-0.628992
-0.17585
24.3745
-0.626213
-0.173179
24.3916
-0.624163
-0.170677
24.4087
-0.622651
-0.168358
24.4253
-0.62127
-0.166155
24.4413
-0.62009
-0.164143
24.4566
-0.619011
-0.162463
24.4712
-0.617909
-0.161414
24.4851
-0.616219
-0.161363
-0.61274
-0.162798
25.008
-0.00567096
0.000884734
25.0148
0.00965501
0.00180987
25.0212
0.0330109
0.00280706
25.0248
0.0577254
0.00391956
25.0239
0.0880873
0.00516665
25.028
0.118258
0.00627829
25.0398
0.160044
0.00789856
25.0679
0.219874
0.00896725
6.27571
0.310121
0.00924536
6.28781
6.27721
6.29113
-0.000977957
-0.109521
6.28323
0.101403
0.00154761
-0.000130801
-0.0444079
-1.57782
1.57956
0.0426121
0.000178348
0.000522453
-0.0821625
-1.60007
1.61647
0.0656966
-0.000452969
0.00358687
-0.0271343
-1.71091
1.74854
0.061151
-0.00114239
-0.0227277
-0.0281124
-0.0232207
0.00476375
0.106427
-1.71272
1.68223
-0.0766358
-0.0040423
0.106261
-1.61032
0.00553097
1.59874
-0.0940737
-0.00613159
0.00627067
0.0745343
-1.58303
-0.00738045
1.58074
-0.0711451
0.00642383
0.0540148
-1.57732
1.57583
-0.050995
-0.00795502
0.00635561
0.0560115
-1.57504
1.57362
-0.0528275
-0.0081225
0.00625804
0.0506567
-1.57279
1.57213
-0.0481337
-0.00811683
0.00609717
0.0473325
-1.56926
1.56954
-0.045734
-0.00798083
-1.56969
0.023856
0.184292
6.27304
-0.159101
-0.042215
-1.56984
-1.56981
-1.57054
25.0807
-0.538308
-0.255565
-6.27576
-6.26947
-6.28012
-6.27457
25.0806
-0.530994
-0.25464
25.0778
-0.519886
-0.252803
25.0752
-0.512671
-0.252055
25.073
-0.506186
-0.25177
25.0717
-0.501273
-0.251578
25.0709
-0.496864
-0.251413
25.0703
-0.49312
-0.251252
25.0699
-0.489946
-0.251076
25.0693
-0.487033
-0.250873
25.0686
-0.484784
-0.250653
25.068
-0.483224
-0.250656
25.0669
-0.481949
-0.250206
25.0653
-0.48037
-0.25005
25.064
-0.479753
-0.250023
25.0627
-0.478739
-0.25031
25.0617
-0.477578
-0.251094
25.0613
-0.475625
-0.252558
-0.473304
-0.254621
25.0066
-0.00985487
0.000538229
25.0163
-0.000590921
0.00107788
25.03
0.0185298
0.00156627
25.038
0.0487867
0.0019723
25.0552
0.0697948
0.00218485
25.0782
0.0941329
0.00200491
25.1158
0.121854
0.0010702
25.1809
0.155192
-0.00129394
6.32915
0.196889
-0.00630227
6.31795
6.33337
6.31642
-0.0861051
0.00133506
6.3474
0.0685821
-0.00207729
-0.0330953
0.003313
6.42084
0.088695
-0.00478553
-0.0312943
-0.0333356
-0.0304975
-6.3798
-0.030076
0.00707179
6.49289
0.0837186
-0.0100311
-0.0294441
-0.0292741
-0.0318521
-6.45301
-0.0102279
0.0124703
-6.54164
6.50119
-0.0557557
-0.0181944
0.0621898
-0.0115739
0.0615361
0.0346486
0.0190492
-6.49446
6.47578
-0.14308
-0.0279667
0.0513914
0.0339257
0.0506749
0.0583862
-6.45147
0.0243184
6.40699
-0.182815
-0.0360242
0.0576084
0.0618606
0.0610695
0.0558474
0.0274339
-6.36651
6.33863
-0.176041
-0.0408186
0.0537564
0.0548794
0.052812
0.0452237
0.0292392
-6.32515
6.31851
-0.156802
-0.0436762
0.0445221
0.0443867
0.043806
0.0439204
0.0302423
-6.31464
6.30697
-0.152486
-0.0453187
0.0444703
0.0431719
0.0437424
0.0433157
0.0306406
-6.29831
6.2893
-0.142706
-0.0461304
0.0409034
0.0427012
0.0403198
0.0385502
0.030691
-6.28171
6.27375
-0.126424
-0.0464135
0.0356445
0.0390462
0.0368625
0.13851
-6.27214
0.0304908
6.27231
-0.122738
-0.0464378
25.0722
-0.391093
-0.26002
-6.27074
-6.26911
-6.27118
-6.26892
25.0646
-0.38458
-0.259185
25.0601
-0.377669
-0.258275
25.0569
-0.372075
-0.257944
25.0553
-0.367756
-0.257584
25.0543
-0.36385
-0.257067
25.0542
-0.360906
-0.256423
25.0547
-0.358354
-0.25569
25.0553
-0.355661
-0.254903
25.0565
-0.353794
-0.254095
25.0574
-0.351731
-0.253275
25.0584
-0.350431