/*--------------------------------*- C++ -*----------------------------------*\
| =========                 |                                                 |
| \\      /  F ield         | OpenFOAM: The Open Source CFD Toolbox           |
|  \\    /   O peration     | Version:  2306                                  |
|   \\  /    A nd           | Website:  www.openfoam.com                      |
|    \\/     M anipulation  |                                                 |
\*---------------------------------------------------------------------------*/
FoamFile
{
    version     2.0;
    format      ascii;
    arch        "LSB;label=32;scalar=64";
    class       volVectorField;
    location    "0.8";
    object      U;
}
// * * * * * * * * * * * * * * * * * * * * * * * * * * * * * * * * * * * * * //

dimensions      [0 1 -1 0 0 0 0];

internalField   nonuniform List<vector> 
111542
(
(99.9934 0.00538046 0.00271123)
(99.9712 0.0110402 0.00562554)
(99.9301 0.0169276 0.00886965)
(99.8687 0.0231688 0.0129154)
(99.7854 0.0294835 0.0181589)
(99.6781 0.0350717 0.0250642)
(99.5458 0.0380486 0.0339145)
(99.3907 0.0354253 0.0452211)
(99.2221 0.0225533 0.0594959)
(99.06 -0.00698825 0.0767443)
(98.9377 -0.0589494 0.0964387)
(98.8959 -0.131008 0.117526)
(98.9619 -0.204987 0.13878)
(99.1273 -0.261123 0.158172)
(99.3481 -0.288555 0.174364)
(99.5753 -0.296718 0.187403)
(99.7804 -0.294612 0.197716)
(99.954 -0.287226 0.206127)
(100.095 -0.277877 0.213106)
(100.207 -0.268785 0.219018)
(100.292 -0.261226 0.223778)
(100.356 -0.255285 0.227615)
(100.402 -0.250612 0.230911)
(100.437 -0.247505 0.233592)
(100.462 -0.2457 0.235787)
(100.481 -0.244668 0.237738)
(100.495 -0.244446 0.239227)
(100.506 -0.244831 0.240275)
(100.514 -0.245458 0.241038)
(100.521 -0.246162 0.241521)
(100.527 -0.246887 0.241705)
(100.532 -0.247667 0.241561)
(100.537 -0.248359 0.241288)
(100.543 -0.248973 0.240964)
(100.548 -0.249574 0.240618)
(100.555 -0.250245 0.24026)
(100.563 -0.251106 0.239841)
(100.572 -0.252068 0.239511)
(100.583 -0.253191 0.239305)
(100.6 -0.254708 0.239325)
(99.9936 0.0160357 0.00265784)
(99.9719 0.0328366 0.00545221)
(99.9313 0.0507029 0.00868085)
(99.8702 0.0699327 0.0127075)
(99.7863 0.0898652 0.0179174)
(99.6757 0.108354 0.0247626)
(99.5353 0.120415 0.0337144)
(99.3645 0.117182 0.0453195)
(99.1692 0.0839939 0.0600911)
(98.9683 -0.000218293 0.0782335)
(98.8031 -0.152888 0.0994397)
(98.7404 -0.367841 0.122017)
(98.8252 -0.592404 0.145058)
(99.037 -0.754184 0.16614)
(99.3039 -0.833914 0.183385)
(99.5605 -0.86087 0.196747)
(99.7812 -0.857402 0.207179)
(99.9621 -0.837798 0.215601)
(100.105 -0.812369 0.222493)
(100.215 -0.78696 0.228052)
(100.298 -0.764671 0.232342)
(100.358 -0.747424 0.235691)
(100.401 -0.735081 0.238421)
(100.432 -0.726923 0.240758)
(100.454 -0.720744 0.242842)
(100.471 -0.71523 0.244742)
(100.483 -0.710667 0.246396)
(100.493 -0.707115 0.247749)
(100.5 -0.704228 0.248774)
(100.506 -0.701832 0.249444)
(100.511 -0.699912 0.249758)
(100.516 -0.698546 0.249755)
(100.52 -0.69761 0.249533)
(100.525 -0.697151 0.249181)
(100.531 -0.697297 0.248761)
(100.537 -0.69819 0.248316)
(100.544 -0.699987 0.247868)
(100.553 -0.702569 0.247455)
(100.563 -0.705938 0.247115)
(100.579 -0.710136 0.247005)
(99.994 0.0263069 0.00252581)
(99.9732 0.0539433 0.0051841)
(99.9342 0.0840604 0.00829371)
(99.8746 0.117391 0.0121939)
(99.7904 0.153559 0.0172741)
(99.6753 0.190138 0.0240222)
(99.5215 0.220725 0.0330159)
(99.3215 0.2316 0.044935)
(99.0724 0.196059 0.0605255)
(98.7912 0.065605 0.0804303)
(98.5373 -0.269057 0.104946)
(98.4239 -0.7325 0.132512)
(98.5475 -1.15187 0.157987)
(98.8556 -1.39098 0.181126)
(99.2063 -1.486 0.199112)
(99.5138 -1.50955 0.212213)
(99.7636 -1.4877 0.222131)
(99.9584 -1.44505 0.230021)
(100.105 -1.39771 0.236252)
(100.214 -1.35246 0.240789)
(100.291 -1.31316 0.243215)
(100.345 -1.27861 0.244401)
(100.382 -1.25974 0.245439)
(100.409 -1.25386 0.246785)
(100.43 -1.25244 0.248381)
(100.445 -1.25152 0.250055)
(100.455 -1.25058 0.251627)
(100.461 -1.24957 0.252921)
(100.466 -1.24827 0.253802)
(100.468 -1.24664 0.254203)
(100.471 -1.24479 0.254124)
(100.472 -1.24292 0.253627)
(100.474 -1.24123 0.252822)
(100.475 -1.23995 0.251832)
(100.477 -1.23931 0.250768)
(100.479 -1.23958 0.24971)
(100.482 -1.24094 0.248694)
(100.486 -1.24346 0.247738)
(100.492 -1.24704 0.246888)
(100.502 -1.25124 0.246394)
(99.9946 0.0357241 0.00232146)
(99.9759 0.0735876 0.00477618)
(99.9404 0.11579 0.00766495)
(99.8849 0.164208 0.0113125)
(99.8038 0.219891 0.0161048)
(99.6875 0.282199 0.0225454)
(99.5217 0.346812 0.0312865)
(99.2853 0.4011 0.04315)
(98.9493 0.415339 0.0591902)
(98.4493 0.214919 0.0808086)
(98.1912 0.0356951 0.0875808)
(97.8422 -0.621523 0.103161)
(97.9064 -1.42521 0.116697)
(98.3867 -1.94063 0.128055)
(98.8942 -2.08985 0.138613)
(99.2977 -2.11592 0.144835)
(99.6239 -2.06976 0.14888)
(99.8678 -1.9894 0.151983)
(100.043 -1.90558 0.154323)
(100.17 -1.83316 0.155757)
(100.331 -1.88706 0.247102)
(100.366 -1.81463 0.242502)
(100.373 -1.7647 0.239864)
(100.376 -1.73646 0.239998)
(100.38 -1.71939 0.241917)
(100.382 -1.7092 0.244677)
(100.378 -1.70378 0.247579)
(100.369 -1.70124 0.250138)
(100.358 -1.70021 0.25206)
(100.345 -1.69995 0.253215)
(100.33 -1.70015 0.253603)
(100.314 -1.70073 0.253323)
(100.298 -1.70174 0.252526)
(100.28 -1.70335 0.251371)
(100.262 -1.70575 0.249992)
(100.243 -1.70919 0.248469)
(100.224 -1.71391 0.246809)
(100.206 -1.72007 0.244977)
(100.189 -1.72756 0.242972)
(100.17 -1.73507 0.241099)
(99.9956 0.0435661 0.00204232)
(99.9804 0.0901944 0.00421375)
(99.9512 0.143365 0.00677302)
(99.9043 0.206668 0.010008)
(99.8335 0.283734 0.0142705)
(99.7272 0.378137 0.0200281)
(99.5656 0.492587 0.02792)
(99.3161 0.625728 0.0387812)
(98.8733 0.764227 0.0537299)
(98.5287 0.771961 0.0590643)
(97.7138 0.38256 0.0724666)
(96.9066 -0.683221 0.0892995)
(96.9992 -2.33829 0.102687)
(98.1267 -2.9453 0.113588)
(98.8591 -2.97612 0.12586)
(99.3447 -2.92393 0.129784)
(99.7205 -2.78826 0.13252)
(99.9671 -2.63498 0.135801)
(100.124 -2.49666 0.138462)
(100.218 -2.38781 0.139845)
(100.281 -2.33753 0.145415)
(100.236 -2.44528 0.210507)
(100.114 -2.43972 0.193211)
(99.9948 -2.41712 0.183396)
(99.8875 -2.38787 0.178978)
(99.7844 -2.36084 0.178369)
(99.6845 -2.33751 0.180219)
(99.5887 -2.31704 0.183377)
(99.4978 -2.29881 0.186941)
(99.4118 -2.28258 0.190262)
(99.3303 -2.26823 0.192932)
(99.2531 -2.25566 0.194763)
(99.1797 -2.24485 0.195719)
(99.1097 -2.23583 0.195852)
(99.0425 -2.22868 0.195241)
(98.9778 -2.22352 0.193937)
(98.9155 -2.22052 0.191921)
(98.8558 -2.22008 0.189127)
(98.8007 -2.223 0.185486)
(98.7444 -2.23123 0.181141)
(99.9971 0.0489282 0.00169129)
(99.9869 0.101747 0.003505)
(99.9671 0.163202 0.00562753)
(99.9347 0.238718 0.00828047)
(99.8842 0.334981 0.0117316)
(99.805 0.46117 0.0163349)
(99.678 0.630851 0.022573)
(99.4665 0.864302 0.0310604)
(99.0464 1.19307 0.04254)
(98.6367 1.35579 0.0470343)
(97.681 1.49905 0.0451251)
(95.5685 0.732731 0.0410117)
(94.3615 -3.41423 0.0541737)
(98.1642 -4.71779 0.0469045)
(98.7042 -3.93954 0.0584045)
(99.3171 -3.84264 0.0597766)
(99.7281 -3.59159 0.0658982)
(99.8955 -3.33903 0.0705354)
(99.922 -3.12941 0.062462)
(99.8547 -2.93472 0.0416746)
(98.663 -2.694 0.192263)
(95.4718 -2.14651 0.134172)
(95.4857 -2.22323 0.125026)
(95.5129 -2.26544 0.118153)
(95.5292 -2.29126 0.112057)
(95.5415 -2.3123 0.10648)
(95.5584 -2.33088 0.101428)
(95.582 -2.34684 0.0969313)
(95.6119 -2.36015 0.0929973)
(95.6468 -2.37102 0.0895908)
(95.6858 -2.37974 0.0866315)
(95.7281 -2.38664 0.0840089)
(95.7727 -2.39209 0.0815807)
(95.8187 -2.39652 0.0791851)
(95.8653 -2.40036 0.0766387)
(95.9117 -2.40404 0.0737345)
(95.9573 -2.40799 0.0702326)
(96.0017 -2.41281 0.0658647)
(96.0441 -2.41962 0.0603587)
(96.0907 -2.43134 0.0536295)
(99.9989 0.0509184 0.00133972)
(99.9951 0.106227 0.00272381)
(99.9875 0.171511 0.00431174)
(99.9746 0.253449 0.00623698)
(99.9539 0.360905 0.00863602)
(99.9206 0.507335 0.0116715)
(99.8662 0.714693 0.015513)
(99.7764 1.02152 0.0202593)
(99.6029 1.50131 0.0257817)
(99.3345 1.90256 0.0280263)
(98.6146 2.84132 0.0250471)
(95.4783 5.85267 0.0186608)
(77.0651 -4.21439 0.0321273)
(102.68 -10.2815 0.0241629)
(58.3137 -5.12734 0.0809229)
(75.1425 -4.12576 0.213212)
(79.0817 -3.46174 0.127684)
(82.1543 -3.265 0.130189)
(84.5018 -3.17758 0.158482)
(86.2736 -3.12012 0.179944)
(93.0119 -3.73383 -0.117819)
(95.8655 -3.14097 -0.127713)
(96.0253 -3.01526 -0.116074)
(96.1938 -2.92905 -0.112704)
(96.3331 -2.86822 -0.11589)
(96.4506 -2.8221 -0.122944)
(96.5564 -2.78555 -0.131463)
(96.6548 -2.7557 -0.139819)
(96.7468 -2.73063 -0.147079)
(96.8335 -2.70907 -0.152829)
(96.9162 -2.69023 -0.157012)
(96.996 -2.67361 -0.159777)
(97.0737 -2.65885 -0.161362)
(97.1499 -2.64569 -0.162014)
(97.2249 -2.63392 -0.161953)
(97.299 -2.62333 -0.16138)
(97.3721 -2.61367 -0.160521)
(97.4441 -2.60458 -0.159627)
(97.5143 -2.59529 -0.158975)
(97.5967 -2.58379 -0.15863)
(100.001 0.0489729 0.000975712)
(100.004 0.102318 0.00193462)
(100.01 0.165725 0.00297198)
(100.019 0.246 0.00411992)
(100.032 0.352225 0.00537503)
(100.052 0.49795 0.00668485)
(100.086 0.704544 0.00788172)
(100.148 1.00778 0.0085337)
(100.291 1.46979 0.00769872)
(100.34 1.88122 0.00733339)
(100.614 2.86683 0.00300556)
(102.436 5.38885 -0.00638109)
(111.134 3.88366 -0.0434015)
(109.112 -6.71095 0.014639)
(102.783 -6.77835 -0.0292913)
(101.1 -4.93252 -0.0462795)
(100.673 -3.91453 -0.0518)
(100.522 -3.36834 -0.0512259)
(100.447 -3.05818 -0.0466468)
(100.377 -2.87744 -0.0410799)
(100.269 -2.66891 -0.128977)
(100.278 -2.25464 -0.205786)
(100.26 -2.15715 -0.195008)
(100.248 -2.10176 -0.18843)
(100.24 -2.07119 -0.186086)
(100.233 -2.0514 -0.187104)
(100.226 -2.037 -0.190319)
(100.222 -2.02624 -0.194743)
(100.219 -2.01813 -0.199616)
(100.218 -2.01199 -0.20438)
(100.218 -2.00751 -0.208657)
(100.218 -2.00456 -0.212246)
(100.219 -2.00307 -0.215088)
(100.219 -2.00294 -0.217238)
(100.219 -2.00395 -0.21883)
(100.219 -2.00577 -0.220064)
(100.218 -2.00794 -0.221184)
(100.218 -2.00968 -0.222455)
(100.22 -2.00974 -0.224095)
(100.226 -2.00553 -0.226033)
(100.003 0.0429692 0.000563285)
(100.012 0.0898269 0.00110766)
(100.03 0.14554 0.00163394)
(100.06 0.215948 0.00206083)
(100.104 0.308489 0.00226201)
(100.17 0.433262 0.00201513)
(100.274 0.604385 0.00090896)
(100.44 0.841298 -0.00179638)
(100.758 1.16835 -0.00747892)
(100.983 1.40855 -0.00960648)
(101.835 1.86637 -0.0172832)
(103.449 1.77305 -0.0321517)
(105.236 -0.224349 -0.0510948)
(104.795 -2.80856 -0.0319257)
(102.994 -3.53039 -0.0494895)
(101.773 -3.30235 -0.0646081)
(101.149 -2.9425 -0.0734465)
(100.818 -2.64433 -0.0786525)
(100.624 -2.4259 -0.0819598)
(100.492 -2.2663 -0.0841394)
(100.394 -2.14001 -0.0864579)
(100.286 -1.8671 -0.232148)
(100.251 -1.83329 -0.229458)
(100.227 -1.80915 -0.22835)
(100.213 -1.79294 -0.228679)
(100.205 -1.78051 -0.229916)
(100.2 -1.76941 -0.231471)
(100.198 -1.75895 -0.232898)
(100.198 -1.74896 -0.23394)
(100.2 -1.73934 -0.234488)
(100.203 -1.7301 -0.234555)
(100.206 -1.72136 -0.234244)
(100.21 -1.71323 -0.233701)
(100.213 -1.70579 -0.233093)
(100.216 -1.69903 -0.232583)
(100.218 -1.69283 -0.232325)
(100.221 -1.68696 -0.232459)
(100.224 -1.68107 -0.233115)
(100.23 -1.67478 -0.234414)
(100.244 -1.6681 -0.236494)
(100.004 0.0333911 0.000274811)
(100.019 0.0697986 0.000537813)
(100.047 0.112938 0.000640712)
(100.092 0.167038 0.000457396)
(100.16 0.237051 -0.00020241)
(100.258 0.328731 -0.00167988)
(100.404 0.448268 -0.00451489)
(100.623 0.600042 -0.00957396)
(100.958 0.780207 -0.0182776)
(101.445 0.86476 -0.0324733)
(102.087 0.768522 -0.053978)
(102.766 0.2432 -0.083483)
(103.128 -0.74159 -0.116427)
(102.886 -1.57095 -0.145911)
(102.246 -1.87583 -0.174774)
(101.617 -1.87886 -0.196997)
(101.17 -1.79239 -0.211502)
(100.88 -1.6893 -0.220856)
(100.684 -1.59346 -0.227174)
(100.545 -1.51002 -0.2314)
(100.447 -1.43804 -0.233939)
(100.381 -1.37323 -0.234844)
(100.335 -1.32201 -0.235369)
(100.302 -1.28078 -0.236095)
(100.279 -1.24825 -0.237067)
(100.263 -1.2226 -0.238199)
(100.251 -1.20181 -0.239368)
(100.243 -1.18458 -0.24044)
(100.238 -1.1701 -0.241302)
(100.234 -1.15784 -0.241885)
(100.233 -1.14743 -0.242179)
(100.232 -1.13862 -0.242217)
(100.231 -1.13125 -0.242073)
(100.231 -1.12515 -0.241843)
(100.231 -1.12012 -0.241647)
(100.231 -1.11595 -0.241609)
(100.232 -1.1124 -0.241857)
(100.234 -1.10918 -0.24252)
(100.237 -1.10608 -0.243727)
(100.244 -1.10316 -0.245615)
(100.005 0.0211537 5.17336e-05)
(100.024 0.0441162 4.47315e-05)
(100.059 0.071307 -0.000160136)
(100.115 0.104991 -0.000743696)
(100.196 0.147993 -0.00198318)
(100.312 0.202658 -0.00425927)
(100.476 0.270381 -0.00815654)
(100.704 0.348613 -0.0144857)
(101.015 0.424442 -0.0243675)
(101.416 0.458801 -0.0390753)
(101.883 0.395922 -0.0596912)
(102.316 0.161191 -0.0864703)
(102.543 -0.255968 -0.116706)
(102.432 -0.683046 -0.14575)
(102.047 -0.926243 -0.171632)
(101.591 -0.985355 -0.191812)
(101.211 -0.957138 -0.206281)
(100.936 -0.904819 -0.216316)
(100.738 -0.851762 -0.223498)
(100.59 -0.804164 -0.22872)
(100.48 -0.764074 -0.232458)
(100.398 -0.7338 -0.23504)
(100.338 -0.713178 -0.236923)
(100.294 -0.699718 -0.238387)
(100.263 -0.691284 -0.239548)
(100.24 -0.68637 -0.240442)
(100.225 -0.683645 -0.24107)
(100.214 -0.682134 -0.241409)
(100.207 -0.681279 -0.241437)
(100.203 -0.680798 -0.24116)
(100.201 -0.680529 -0.240617)
(100.2 -0.680413 -0.239878)
(100.2 -0.680431 -0.239027)
(100.201 -0.680621 -0.238167)
(100.202 -0.680707 -0.237432)
(100.203 -0.680796 -0.236904)
(100.206 -0.680847 -0.236676)
(100.209 -0.680761 -0.236855)
(100.216 -0.680464 -0.237577)
(100.23 -0.679809 -0.239101)
(100.006 0.007245 -7.26262e-05)
(100.026 0.0150707 -0.000146962)
(100.065 0.0243622 -0.000544051)
(100.125 0.0357306 -0.00128405)
(100.213 0.0501906 -0.00283464)
(100.337 0.0682707 -0.00551501)
(100.506 0.0899509 -0.00995167)
(100.734 0.113739 -0.0168417)
(101.026 0.134544 -0.02728)
(101.376 0.139825 -0.0419785)
(101.752 0.109791 -0.0615309)
(102.077 0.0239475 -0.085699)
(102.248 -0.114654 -0.112731)
(102.186 -0.258658 -0.139652)
(101.916 -0.350581 -0.16323)
(101.557 -0.379507 -0.182314)
(101.221 -0.374329 -0.196801)
(100.956 -0.359572 -0.207247)
(100.757 -0.344294 -0.214945)
(100.605 -0.330594 -0.220728)
(100.49 -0.319002 -0.225112)
(100.404 -0.309808 -0.228401)
(100.34 -0.302368 -0.230848)
(100.295 -0.295927 -0.232592)
(100.262 -0.289819 -0.233889)
(100.239 -0.283796 -0.234815)
(100.223 -0.277738 -0.235392)
(100.211 -0.271609 -0.235641)
(100.204 -0.265461 -0.235584)
(100.199 -0.259393 -0.235257)
(100.197 -0.253508 -0.234711)
(100.195 -0.247897 -0.234012)
(100.194 -0.242643 -0.233227)
(100.194 -0.237838 -0.232396)
(100.195 -0.233299 -0.231815)
(100.196 -0.229148 -0.231447)
(100.198 -0.225406 -0.231348)
(100.201 -0.222062 -0.231625)
(100.206 -0.219208 -0.232421)
(100.216 -0.217314 -0.234026)
(99.9937 0.00532768 0.00795321)
(99.9722 0.0108685 0.0164084)
(99.9322 0.0167428 0.026066)
(99.8726 0.0229689 0.0380743)
(99.7918 0.0292541 0.0535414)
(99.6876 0.0347897 0.0737367)
(99.5592 0.0378728 0.099773)
(99.409 0.035547 0.133084)
(99.2458 0.0231631 0.174937)
(99.0888 -0.00552921 0.225508)
(98.9705 -0.056111 0.283666)
(98.9308 -0.126702 0.346401)
(98.9953 -0.198598 0.409104)
(99.1554 -0.252725 0.466298)
(99.3686 -0.279009 0.514139)
(99.5874 -0.286714 0.552456)
(99.7844 -0.28437 0.582673)
(99.9509 -0.276863 0.606934)
(100.086 -0.267514 0.626688)
(100.193 -0.258741 0.642959)
(100.276 -0.251552 0.656111)
(100.338 -0.246025 0.666897)
(100.386 -0.241867 0.676089)
(100.422 -0.239066 0.683623)
(100.449 -0.237338 0.689554)
(100.471 -0.236336 0.694148)
(100.489 -0.235927 0.697262)
(100.503 -0.235989 0.69913)
(100.514 -0.236341 0.700169)
(100.523 -0.236847 0.700584)
(100.531 -0.237424 0.700513)
(100.537 -0.238036 0.700053)
(100.542 -0.23865 0.699536)
(100.547 -0.239265 0.69909)
(100.552 -0.239904 0.698724)
(100.558 -0.24062 0.698397)
(100.564 -0.241463 0.697975)
(100.571 -0.242455 0.697533)
(100.581 -0.24366 0.696974)
(100.597 -0.245247 0.696187)
(99.9939 0.0158522 0.00777988)
(99.9728 0.032401 0.0159875)
(99.9334 0.0501393 0.025525)
(99.8741 0.0692334 0.0374183)
(99.7927 0.0890174 0.0527779)
(99.6854 0.107377 0.0729168)
(99.5492 0.119613 0.0992734)
(99.3837 0.117013 0.133479)
(99.1944 0.0851265 0.17705)
(98.9995 0.00346235 0.230761)
(98.8389 -0.144863 0.293829)
(98.779 -0.353372 0.363149)
(98.8629 -0.572691 0.432693)
(99.069 -0.731671 0.495346)
(99.3274 -0.809439 0.546059)
(99.5753 -0.836058 0.585299)
(99.7881 -0.832672 0.615755)
(99.9625 -0.813282 0.639994)
(100.1 -0.788351 0.659512)
(100.206 -0.764089 0.675111)
(100.286 -0.743847 0.687415)
(100.345 -0.728984 0.697645)
(100.389 -0.718661 0.706381)
(100.422 -0.711624 0.713468)
(100.446 -0.705872 0.718832)
(100.465 -0.700498 0.722703)
(100.48 -0.695762 0.72534)
(100.491 -0.691932 0.727034)
(100.5 -0.688935 0.728058)
(100.507 -0.686669 0.728617)
(100.513 -0.685089 0.728867)
(100.518 -0.684174 0.728949)
(100.523 -0.683862 0.729018)
(100.527 -0.684154 0.729154)
(100.532 -0.685086 0.729355)
(100.537 -0.686704 0.729563)
(100.543 -0.689084 0.729671)
(100.551 -0.692235 0.729588)
(100.56 -0.696127 0.729194)
(100.575 -0.700676 0.728445)
(99.9942 0.0259732 0.00739435)
(99.9741 0.0532765 0.0152171)
(99.9363 0.0830645 0.0243887)
(99.8785 0.116034 0.0359036)
(99.7969 0.15181 0.0509061)
(99.6853 0.188041 0.0708285)
(99.5362 0.218493 0.0974133)
(99.3422 0.229722 0.132743)
(99.1003 0.19552 0.179094)
(98.827 0.0682786 0.238428)
(98.5802 -0.258941 0.311174)
(98.47 -0.712652 0.392713)
(98.591 -1.12284 0.473422)
(98.8919 -1.35733 0.544199)
(99.2327 -1.45122 0.59806)
(99.5307 -1.47538 0.637366)
(99.7726 -1.45408 0.667048)
(99.9611 -1.41188 0.690422)
(100.103 -1.36527 0.70884)
(100.207 -1.32152 0.722831)
(100.282 -1.28647 0.73257)
(100.336 -1.25904 0.74073)
(100.374 -1.24458 0.748395)
(100.403 -1.23992 0.754702)
(100.426 -1.23778 0.758964)
(100.443 -1.23535 0.761306)
(100.454 -1.23285 0.762185)
(100.461 -1.23069 0.762046)
(100.465 -1.22893 0.761274)
(100.467 -1.2276 0.760198)
(100.468 -1.2267 0.759076)
(100.469 -1.2263 0.758099)
(100.469 -1.22643 0.757391)
(100.47 -1.22712 0.756989)
(100.47 -1.22847 0.756845)
(100.472 -1.23059 0.756831)
(100.474 -1.23365 0.756753)
(100.477 -1.23774 0.75639)
(100.482 -1.2428 0.755585)
(100.493 -1.24826 0.754477)
(99.9948 0.0352449 0.0067965)
(99.9768 0.0726298 0.0140242)
(99.9424 0.114296 0.0225482)
(99.8887 0.162073 0.0333261)
(99.8102 0.216977 0.0475088)
(99.6977 0.278379 0.0666052)
(99.5369 0.342026 0.0926199)
(99.3073 0.395472 0.128147)
(98.9798 0.409345 0.176524)
(98.4906 0.211866 0.241875)
(98.2329 0.0293171 0.274675)
(97.8899 -0.631017 0.349942)
(97.957 -1.43012 0.4287)
(98.434 -1.94747 0.499565)
(98.9315 -2.09832 0.551679)
(99.327 -2.12955 0.586319)
(99.6479 -2.08719 0.610844)
(99.8877 -2.00864 0.629622)
(100.06 -1.926 0.643985)
(100.182 -1.85499 0.654225)
(100.327 -1.8975 0.779188)
(100.359 -1.84526 0.784501)
(100.369 -1.80842 0.788643)
(100.373 -1.78608 0.791769)
(100.377 -1.77041 0.793721)
(100.376 -1.75907 0.794511)
(100.368 -1.7515 0.794306)
(100.355 -1.74692 0.793365)
(100.339 -1.74468 0.791968)
(100.32 -1.74439 0.790374)
(100.301 -1.74577 0.788796)
(100.28 -1.74856 0.787389)
(100.259 -1.75251 0.786243)
(100.238 -1.75742 0.78536)
(100.217 -1.76316 0.784661)
(100.195 -1.76971 0.783962)
(100.174 -1.77718 0.782973)
(100.153 -1.78575 0.781324)
(100.134 -1.79547 0.778657)
(100.114 -1.80527 0.774918)
(99.9958 0.0429411 0.00598096)
(99.9812 0.0889381 0.0123684)
(99.953 0.141358 0.0199229)
(99.9078 0.203693 0.0294978)
(99.8395 0.279465 0.0421525)
(99.7366 0.372128 0.0593257)
(99.58 0.484257 0.0830292)
(99.3374 0.614347 0.115995)
(98.9043 0.748797 0.161883)
(98.5617 0.751234 0.187775)
(97.755 0.359901 0.253345)
(96.9569 -0.704209 0.33613)
(97.0552 -2.34651 0.427916)
(98.1752 -2.94841 0.506703)
(98.89 -2.97702 0.55396)
(99.3668 -2.94194 0.576738)
(99.7418 -2.81837 0.592257)
(99.9879 -2.67305 0.605434)
(100.144 -2.5427 0.614705)
(100.237 -2.44277 0.618615)
(100.29 -2.40006 0.612756)
(100.168 -2.57493 0.742367)
(100.035 -2.5699 0.736658)
(99.9082 -2.54686 0.725545)
(99.7926 -2.51728 0.71251)
(99.6814 -2.49024 0.699058)
(99.5734 -2.4674 0.685699)
(99.4697 -2.44812 0.672842)
(99.371 -2.43195 0.660877)
(99.2773 -2.41872 0.650087)
(99.1885 -2.40824 0.640633)
(99.1045 -2.40024 0.632565)
(99.0251 -2.3944 0.625837)
(98.9501 -2.39042 0.620309)
(98.8792 -2.38807 0.615742)
(98.8119 -2.38722 0.61178)
(98.7483 -2.38798 0.607893)
(98.6885 -2.39081 0.603384)
(98.6343 -2.3968 0.597436)
(98.5819 -2.40847 0.589493)
(99.9972 0.0482301 0.00503149)
(99.9876 0.100271 0.0103536)
(99.9686 0.160768 0.0166005)
(99.9376 0.234997 0.0244495)
(99.889 0.329439 0.0347258)
(99.8127 0.452995 0.0485546)
(99.6897 0.618801 0.0675074)
(99.4836 0.846487 0.093743)
(99.0712 1.16648 0.130042)
(98.6642 1.32531 0.151697)
(97.7142 1.46195 0.181148)
(95.6144 0.684143 0.232267)
(94.4236 -3.45679 0.319414)
(98.2563 -4.7017 0.421906)
(98.7417 -3.79474 0.495649)
(99.3231 -3.8072 0.476636)
(99.7528 -3.6243 0.432486)
(99.9224 -3.39899 0.38616)
(99.9383 -3.20301 0.339071)
(99.8569 -3.01851 0.292089)
(98.4884 -2.88716 0.271081)
(95.036 -2.70885 0.35989)
(95.1192 -2.77791 0.364921)
(95.2118 -2.80458 0.363342)
(95.285 -2.80795 0.358581)
(95.3451 -2.80097 0.352386)
(95.4005 -2.78804 0.345148)
(95.4552 -2.77162 0.337092)
(95.5101 -2.75421 0.328543)
(95.5656 -2.73797 0.319879)
(95.6219 -2.72434 0.311479)
(95.6791 -2.71399 0.303719)
(95.737 -2.70698 0.296832)
(95.7953 -2.70296 0.290941)
(95.8534 -2.70139 0.285985)
(95.9111 -2.70174 0.281664)
(95.9678 -2.70359 0.277365)
(96.0234 -2.70692 0.272104)
(96.0772 -2.7125 0.26437)
(96.14 -2.72306 0.251699)
(99.999 0.0501899 0.00388061)
(99.9955 0.104652 0.00797815)
(99.9885 0.168858 0.0126859)
(99.9765 0.249305 0.018406)
(99.957 0.354592 0.0255919)
(99.9253 0.497783 0.0348051)
(99.8729 0.700205 0.0467171)
(99.7851 0.999431 0.0619429)
(99.6129 1.46733 0.0806176)
(99.345 1.862 0.0918354)
(98.6235 2.78699 0.103025)
(95.4674 5.75156 0.109314)
(77.227 -4.50182 0.107116)
(49.8965 -3.87256 2.914)
(70.6583 -3.18992 0.531274)
(77.731 -3.28624 0.290459)
(82.2387 -3.46388 0.167349)
(85.1726 -3.52355 0.122784)
(87.1431 -3.51014 0.0972412)
(93.534 -3.95923 -0.205023)
(96.5559 -3.49795 -0.544136)
(96.6978 -3.37907 -0.529562)
(96.8376 -3.29244 -0.511086)
(96.9431 -3.22447 -0.493354)
(97.0262 -3.16604 -0.477811)
(97.0998 -3.11382 -0.464802)
(97.17 -3.06678 -0.454407)
(97.2392 -3.0247 -0.446408)
(97.3087 -2.98754 -0.44032)
(97.3789 -2.95525 -0.435531)
(97.4497 -2.92759 -0.43145)
(97.5205 -2.90418 -0.427598)
(97.5904 -2.88448 -0.4237)
(97.6586 -2.86788 -0.419707)
(97.7243 -2.85379 -0.41583)
(97.7874 -2.84157 -0.412607)
(97.8477 -2.83048 -0.410871)
(97.9052 -2.81939 -0.411786)
(97.9729 -2.80584 -0.416535)
(100.001 0.0481802 0.00273134)
(100.004 0.100694 0.00555518)
(100.01 0.163044 0.00862973)
(100.019 0.241832 0.0120505)
(100.033 0.345875 0.0158493)
(100.053 0.488326 0.019944)
(100.087 0.689995 0.0239523)
(100.147 0.985837 0.0267996)
(100.286 1.43686 0.0259239)
(100.332 1.84206 0.0244425)
(100.597 2.81564 0.0135285)
(102.374 5.32763 -0.0296462)
(110.844 4.16226 -0.14111)
(109.108 -6.3693 -0.278892)
(102.755 -6.7434 -0.37038)
(101.078 -4.89738 -0.434312)
(100.65 -3.90445 -0.451204)
(100.497 -3.3817 -0.450536)
(100.422 -3.08709 -0.445097)
(100.355 -2.91762 -0.437495)
(100.258 -2.74914 -0.501377)
(100.282 -2.37543 -0.688504)
(100.265 -2.27964 -0.686129)
(100.253 -2.22239 -0.679921)
(100.246 -2.18789 -0.674169)
(100.24 -2.16377 -0.669897)
(100.237 -2.14587 -0.666844)
(100.235 -2.13297 -0.664778)
(100.235 -2.12413 -0.663544)
(100.236 -2.11842 -0.662955)
(100.236 -2.11508 -0.662804)
(100.236 -2.11352 -0.662911)
(100.235 -2.11326 -0.663141)
(100.233 -2.1139 -0.663414)
(100.229 -2.11509 -0.663798)
(100.225 -2.11647 -0.664492)
(100.221 -2.11761 -0.665879)
(100.217 -2.11785 -0.6685)
(100.215 -2.11602 -0.672965)
(100.22 -2.10987 -0.679433)
(100.003 0.0422577 0.00161814)
(100.012 0.0884202 0.00326337)
(100.03 0.143198 0.00480645)
(100.06 0.212286 0.00606603)
(100.103 0.302916 0.00670788)
(100.169 0.424876 0.00611788)
(100.27 0.591933 0.0031542)
(100.433 0.823054 -0.00427875)
(100.744 1.14197 -0.0201138)
(100.966 1.37781 -0.0307819)
(101.803 1.82752 -0.0682277)
(103.394 1.73274 -0.139843)
(105.154 -0.232324 -0.244693)
(104.716 -2.79137 -0.363967)
(102.944 -3.52904 -0.460311)
(101.738 -3.30338 -0.522465)
(101.127 -2.94998 -0.558034)
(100.804 -2.65895 -0.577301)
(100.616 -2.44681 -0.587484)
(100.488 -2.29334 -0.592057)
(100.394 -2.17288 -0.591142)
(100.295 -1.89575 -0.742097)
(100.258 -1.86912 -0.740925)
(100.233 -1.84851 -0.738971)
(100.217 -1.83254 -0.736744)
(100.208 -1.81799 -0.734336)
(100.204 -1.80355 -0.731742)
(100.202 -1.7893 -0.729043)
(100.204 -1.77559 -0.726355)
(100.206 -1.76264 -0.723773)
(100.209 -1.75062 -0.721361)
(100.213 -1.73969 -0.719162)
(100.216 -1.72993 -0.717219)
(100.219 -1.72131 -0.715568)
(100.221 -1.71369 -0.714319)
(100.223 -1.7068 -0.713641)
(100.224 -1.70028 -0.713796)
(100.226 -1.69363 -0.715138)
(100.231 -1.68642 -0.718076)
(100.242 -1.67892 -0.722957)
(100.004 0.0328713 0.000730183)
(100.019 0.0687191 0.00139051)
(100.047 0.111129 0.00166746)
(100.092 0.164245 0.00116631)
(100.158 0.232799 -0.00071749)
(100.255 0.322413 -0.00494661)
(100.398 0.439092 -0.013064)
(100.612 0.587041 -0.0275732)
(100.939 0.762346 -0.0525671)
(101.415 0.844849 -0.0938805)
(102.042 0.751035 -0.15734)
(102.705 0.237661 -0.246431)
(103.057 -0.721715 -0.352776)
(102.817 -1.53518 -0.4646)
(102.192 -1.83636 -0.556934)
(101.581 -1.83934 -0.620692)
(101.151 -1.75498 -0.661059)
(100.872 -1.65504 -0.686591)
(100.684 -1.56254 -0.703321)
(100.55 -1.48252 -0.714155)
(100.456 -1.41441 -0.720606)
(100.391 -1.35515 -0.723572)
(100.344 -1.30794 -0.72611)
(100.309 -1.26879 -0.728382)
(100.284 -1.23672 -0.729854)
(100.266 -1.21052 -0.73049)
(100.252 -1.18878 -0.730497)
(100.243 -1.17057 -0.730043)
(100.236 -1.1553 -0.729241)
(100.232 -1.14251 -0.728186)
(100.23 -1.13183 -0.726984)
(100.229 -1.12294 -0.725743)
(100.228 -1.11558 -0.724583)
(100.229 -1.10952 -0.723625)
(100.229 -1.10449 -0.723033)
(100.23 -1.10024 -0.722993)
(100.231 -1.09646 -0.723731)
(100.234 -1.09284 -0.725509)
(100.237 -1.0892 -0.728596)
(100.244 -1.08573 -0.73313)
(100.005 0.0208041 9.03828e-05)
(100.023 0.0434409 4.68901e-05)
(100.058 0.0701599 -0.000564276)
(100.113 0.103302 -0.00226831)
(100.193 0.145392 -0.0058754)
(100.308 0.198849 -0.0124735)
(100.468 0.265001 -0.0237203)
(100.691 0.341387 -0.0420054)
(100.994 0.415309 -0.0706025)
(101.385 0.449009 -0.113433)
(101.839 0.38796 -0.174)
(102.261 0.158809 -0.253151)
(102.483 -0.249854 -0.345114)
(102.376 -0.667136 -0.437722)
(102.001 -0.902718 -0.517881)
(101.56 -0.959106 -0.577724)
(101.195 -0.931015 -0.618878)
(100.93 -0.880029 -0.646965)
(100.74 -0.828656 -0.6667)
(100.598 -0.782964 -0.680705)
(100.492 -0.745082 -0.690462)
(100.412 -0.717511 -0.697142)
(100.352 -0.699088 -0.702178)
(100.307 -0.686897 -0.705908)
(100.273 -0.679023 -0.708256)
(100.248 -0.674118 -0.709304)
(100.23 -0.671001 -0.709269)
(100.217 -0.668849 -0.70836)
(100.207 -0.667243 -0.706756)
(100.201 -0.666001 -0.704636)
(100.198 -0.665026 -0.702185)
(100.196 -0.664289 -0.699592)
(100.196 -0.663767 -0.697039)
(100.196 -0.663449 -0.694706)
(100.198 -0.663239 -0.692816)
(100.2 -0.663085 -0.691528)
(100.204 -0.662878 -0.691024)
(100.208 -0.662509 -0.691536)
(100.215 -0.661908 -0.693337)
(100.229 -0.661101 -0.696776)
(100.006 0.00711959 -0.00025258)
(100.026 0.0148785 -0.000616969)
(100.064 0.0239735 -0.00171658)
(100.124 0.0351757 -0.00396831)
(100.21 0.0492772 -0.00846056)
(100.332 0.0669216 -0.0161727)
(100.498 0.0880893 -0.0287829)
(100.72 0.111336 -0.0485249)
(101.005 0.131586 -0.0783491)
(101.347 0.136868 -0.120889)
(101.713 0.107916 -0.178171)
(102.03 0.0247787 -0.249688)
(102.197 -0.109789 -0.330587)
(102.139 -0.2498 -0.411795)
(101.878 -0.338546 -0.483604)
(101.532 -0.366443 -0.540368)
(101.209 -0.361419 -0.58169)
(100.955 -0.347141 -0.611004)
(100.764 -0.332454 -0.632222)
(100.619 -0.319388 -0.647805)
(100.507 -0.308511 -0.659236)
(100.422 -0.300082 -0.667543)
(100.359 -0.293255 -0.673619)
(100.311 -0.287135 -0.677965)
(100.275 -0.281195 -0.68095)
(100.248 -0.275226 -0.682681)
(100.228 -0.269132 -0.683276)
(100.213 -0.262917 -0.682912)
(100.203 -0.25668 -0.681777)
(100.195 -0.250551 -0.680066)
(100.191 -0.244645 -0.677979)
(100.188 -0.239053 -0.675717)
(100.187 -0.233839 -0.67347)
(100.188 -0.229039 -0.671382)
(100.189 -0.224629 -0.669886)
(100.191 -0.220617 -0.669008)
(100.195 -0.216987 -0.668887)
(100.2 -0.213728 -0.669742)
(100.207 -0.210939 -0.671829)
(100.216 -0.209122 -0.675472)
(99.9941 0.00520806 0.0126466)
(99.9739 0.0106219 0.0260256)
(99.9364 0.0163925 0.041562)
(99.8804 0.0225237 0.0608416)
(99.8047 0.028738 0.0855741)
(99.7071 0.0342852 0.117763)
(99.587 0.0375951 0.159531)
(99.4469 0.0358811 0.213187)
(99.2949 0.024753 0.280735)
(99.149 -0.00165287 0.362901)
(99.0396 -0.0488177 0.458196)
(99.0036 -0.11443 0.561796)
(99.0648 -0.181654 0.665418)
(99.2151 -0.232175 0.760364)
(99.4146 -0.256567 0.840047)
(99.6188 -0.263531 0.903633)
(99.8025 -0.260869 0.953551)
(99.9577 -0.253205 0.993085)
(100.084 -0.243836 1.02477)
(100.184 -0.235243 1.05036)
(100.262 -0.228242 1.0711)
(100.322 -0.222618 1.0883)
(100.368 -0.218215 1.10309)
(100.405 -0.215382 1.11594)
(100.434 -0.213981 1.1268)
(100.458 -0.213512 1.13558)
(100.478 -0.213596 1.14229)
(100.495 -0.213977 1.14716)
(100.509 -0.214437 1.15055)
(100.52 -0.214808 1.15276)
(100.53 -0.215008 1.15405)
(100.538 -0.215035 1.15469)
(100.544 -0.214923 1.15497)
(100.55 -0.214735 1.15507)
(100.554 -0.214542 1.1551)
(100.558 -0.214447 1.15507)
(100.562 -0.214546 1.15492)
(100.568 -0.214911 1.15454)
(100.575 -0.215633 1.1537)
(100.587 -0.216875 1.15201)
(99.9943 0.0154799 0.012349)
(99.9745 0.0316538 0.0254331)
(99.9376 0.0490421 0.0407048)
(99.882 0.0677903 0.0597463)
(99.8057 0.0872767 0.0843211)
(99.7054 0.105539 0.116578)
(99.5782 0.118198 0.15897)
(99.4238 0.117033 0.214284)
(99.2473 0.0883773 0.285232)
(99.0656 0.0128656 0.373556)
(98.9168 -0.125653 0.478358)