/*--------------------------------*- C++ -*----------------------------------*\
| =========                 |                                                 |
| \\      /  F ield         | OpenFOAM: The Open Source CFD Toolbox           |
|  \\    /   O peration     | Version:  2306                                  |
|   \\  /    A nd           | Website:  www.openfoam.com                      |
|    \\/     M anipulation  |                                                 |
\*---------------------------------------------------------------------------*/
FoamFile
{
    version     2.0;
    format      ascii;
    arch        "LSB;label=32;scalar=64";
    class       volVectorField;
    location    "0.95";
    object      Force;
}
// * * * * * * * * * * * * * * * * * * * * * * * * * * * * * * * * * * * * * //

dimensions      [1 1 -2 0 0 0 0];

internalField   uniform (0 0 0);

boundaryField
{
    walls
    {
        type            calculated;
        value           uniform (0 0 0);
    }
    inlet
    {
        type            calculated;
        value           uniform (0 0 0);
    }
    outlet
    {
        type            calculated;
        value           uniform (0 0 0);
    }
    NASA
    {
        type            calculated;
        value           nonuniform List<vector> 
14179
(
(-0.0145933 -0.134188 1.03544e-05)
(-0.0130561 -0.107911 7.53132e-06)
(-0.0665642 -0.538277 0.00101512)
(-0.101175 -0.81409 0.00391661)
(-0.0662268 -0.535997 0.000526034)
(-0.110104 -0.885848 0.00432044)
(0.208635 0.905655 -0.000447191)
(0.0907562 0.455599 -7.63542e-05)
(0.632582 3.10124 0.00325603)
(0.0967286 0.485616 -8.1395e-05)
(-0.000537311 -0.00775967 4.4955e-06)
(-0.017915 -0.146715 0.000693078)
(0.130488 0.651954 -0.00289045)
(-0.0356584 -0.324396 0.00165242)
(0.0618758 0.308782 -0.00133688)
(1.37597 0.928197 0.00283317)
(1.38951 0.920982 -0.000455755)
(0.0222643 0.124863 -6.52561e-05)
(0.167014 0.991136 -0.000152727)
(1.26054 0.83563 -0.00423326)
(-0.0171575 -0.240037 -1.60681e-06)
(-0.0213855 -0.198816 -0.000107045)
(-0.01963 -0.272484 -0.000215163)
(-0.00872318 -0.0635189 4.49489e-06)
(-0.0132339 -0.109432 2.85107e-05)
(-0.00942711 -0.0686473 2.31645e-05)
(-0.0128968 -0.106268 0.000498421)
(-0.0151711 -0.108746 0.000526814)
(-0.0132397 -0.120989 0.000566757)
(-0.0154689 -0.212495 0.00403796)
(0.0468555 0.204626 1.50782e-06)
(0.0526958 0.248479 -6.11878e-06)
(0.0566637 0.267183 -0.000103464)
(0.0462197 0.20132 -2.45619e-05)
(0.0706479 0.25912 1.25366e-06)
(0.0756518 0.27736 -6.15641e-06)
(0.0348361 0.126377 5.49741e-07)
(0.0405474 0.147034 2.07078e-06)
(-0.00230316 -0.0109167 0.000166816)
(-0.0129256 -0.0629166 0.000767835)
(0.170106 0.621376 -0.00225428)
(0.0994631 0.358702 -0.000897025)
(0.09469 0.475235 -0.000121453)
(-0.00602917 -0.0423735 4.42646e-06)
(-0.0054872 -0.0385591 1.79e-06)
(0.150352 0.755041 -0.00019063)
(-0.00988992 -0.0684727 0.000364926)
(0.0969615 0.484251 -0.00142654)
(0.0901396 0.450616 -0.00145988)
(0.107692 0.440013 -0.000387587)
(0.0844679 0.314006 -2.50242e-05)
(0.0841264 0.312746 -6.68252e-05)
(-0.0674353 1.64509 -0.000228347)
(1.38622 0.921696 -0.000760662)
(-0.054816 1.34431 9.2786e-05)
(-0.00296047 1.45298 -0.000215336)
(0.0749901 1.13487 1.26283e-05)
(0.0679448 1.02437 -0.000234626)
(-0.00288641 1.29178 -1.6846e-05)
(0.103523 0.40685 -3.01923e-05)
(0.160713 0.952897 -0.000238494)
(0.00716528 0.0260332 -3.80656e-06)
(-0.0228726 0.567312 -0.00172127)
(0.911091 0.621919 0.0745856)
(-0.000773456 0.532914 -0.00191021)
(0.0268608 0.407887 -0.00134324)
(0.127052 0.743911 0.00555489)
(-0.0147132 -0.147195 1.3664e-05)
(-0.0145341 -0.13373 2.02773e-05)
(-0.0994996 -0.80072 0.00384664)
(-0.011522 -0.0913586 7.11428e-06)
(-0.0130323 -0.107723 1.60322e-05)
(1.30868 0.866533 -0.005031)
(1.26023 0.834711 -0.00463556)
(0.345887 2.05179 -0.0107221)
(0.260662 1.54065 -0.00743051)
(-0.111548 -0.898679 0.00290389)
(-0.057237 -0.356322 0.0017764)
(-0.0562976 -0.352872 0.00180494)
(-0.0435342 -0.255413 0.00129648)
(0.156966 0.677175 -0.0034353)
(0.176427 0.763039 -0.00379206)
(0.762632 1.30939 -4.8371e-05)
(0.763081 1.30821 -0.000314488)
(0.0912551 0.458049 -9.41929e-05)
(0.0823759 0.395772 -5.55289e-05)
(-0.000325528 -0.0034988 -5.42486e-07)
(0.00140622 0.00704585 -3.69292e-07)
(0.00143549 0.00721073 -2.42088e-06)
(-0.000316227 -0.00343376 3.53579e-07)
(0.0985192 0.494638 -8.6075e-05)
(0.0904964 0.46676 -6.56556e-05)
(-0.0201018 -0.164379 0.000833069)
(-0.0135912 -0.0974731 0.000516014)
(-0.0204481 -0.146072 0.000738074)
(-0.012424 -0.0857365 0.000482789)
(-0.0182342 -0.125127 0.000588521)
(0.0853975 0.426244 -0.00214261)
(-0.0200568 -0.182585 0.000908225)
(-0.0246975 -0.339439 0.00182411)
(-0.0208021 -0.292373 0.000855822)
(0.0801009 0.400184 -0.00198341)
(1.3732 0.922266 -0.00265756)
(0.100387 0.59174 -0.000104194)
(0.103068 0.576481 -5.37888e-05)
(0.104125 0.582037 -9.90655e-05)
(0.18444 1.28375 -0.000204231)
(0.108756 0.645026 -0.000113535)
(0.169565 1.00584 -0.000172658)
(0.0249408 0.0235757 2.45972e-05)
(0.337897 -0.12452 0.00338857)
(0.358072 -0.141965 0.00168424)
(0.0120353 0.0115468 -3.01714e-05)
(-0.00715824 -0.0306148 0.000221411)
(0.0208698 0.0769327 -0.000328429)
(0.00166466 0.00550797 4.10817e-05)
(0.0207552 0.0835072 -0.000255605)
(-0.00988487 -0.0440959 0.000235707)
(-0.00233194 -0.0127004 0.000142586)
(0.00377267 0.0156431 -2.38493e-05)
(-0.0183596 -0.08878 0.000441695)
(-0.00112139 0.730599 -0.00336422)
(0.0405996 0.607115 -0.00288822)
(-0.00163146 0.979729 -0.00458165)
(0.031636 0.479392 -0.00259177)
(-0.0347012 0.865982 -0.00417772)
(1.0897 0.733117 -0.00399111)
(-0.0470318 1.16118 -0.00538517)
(0.109218 0.646615 -0.00411583)
(0.156213 0.611894 -0.00324978)
(0.11732 0.458914 -0.00220669)
(0.108279 0.395182 -0.00188147)
(0.153219 0.559926 -0.00266581)
(0.0631445 0.227886 -0.0010831)
(0.086078 0.311191 -0.00155362)
(-0.013261 -0.149395 5.43632e-06)
(-0.0170431 -0.238108 2.97863e-05)
(-0.0105648 -0.0813636 6.62848e-06)
(-0.00857364 -0.0624348 8.34201e-06)
(0.000624768 0.0018586 0.530096)
(-0.0129518 -0.101945 0.000484965)
(0.000594872 0.00177546 0.504121)
(-0.0144104 -0.109836 0.000533172)
(0.000912649 0.00215916 0.573416)
(-0.0129552 -0.129415 0.00067121)
(0.00116387 0.00260201 0.574572)
(-0.0120544 -0.138956 0.00150517)
(0.0524879 0.247484 -4.69497e-05)
(0.0391466 0.178039 -1.47771e-05)
(0.0394612 0.179492 -3.47832e-05)
(0.0464414 0.202258 -2.8879e-05)
(0.0457051 0.201303 -1.68804e-05)
(0.0459417 0.202367 -3.59118e-05)
(0.0716508 0.262684 9.48073e-07)
(0.0240092 0.119407 -2.15523e-05)
(0.0214583 0.108864 -1.98114e-05)
(0.0361946 0.131243 5.5833e-06)
(0.0299877 0.105499 -1.09637e-06)
(-0.0066735 -0.0305113 0.000294994)
(-0.00560053 -0.0266527 0.000313573)
(0.000462906 0.00144855 0.318814)
(0.000461107 0.00139776 0.311932)
(0.00044992 0.00136909 0.307809)
(0.000330842 0.00137073 0.353845)
(0.0939213 0.320123 -0.000547195)
(0.160335 0.560764 0.0022748)
(-2.45434e-06 0.00139689 0.333899)
(0.000375173 0.000763147 0.30335)
(0.000122255 0.000483252 0.106747)
(0.0820884 0.288219 -0.000695228)
(0.285299 0.662803 -8.76361e-06)
(0.167717 0.591296 4.75478e-05)
(0.166032 0.585403 -5.70541e-05)
(0.0767017 0.358242 -4.21231e-05)
(0.0780816 0.364746 -7.37387e-05)
(0.128042 0.611671 -7.79061e-05)
(0.0755344 0.336387 -6.32209e-05)
(0.0787332 0.357364 -3.68233e-05)
(0.0806081 0.365841 -7.15835e-05)
(0.0746324 0.332434 -2.64161e-05)
(-0.00482438 -0.0339208 3.69591e-06)
(-0.00595625 -0.0418649 4.45443e-06)
(0.138504 0.73371 -8.12339e-05)
(0.262122 0.452175 0.0097038)
(0.00117416 0.00473893 0.856349)
(0.00034853 0.00249928 0.409227)
(0.0478531 0.139216 -0.000283648)
(-0.0118645 -0.0740224 0.000438907)
(-0.0118517 -0.0748417 0.00058532)
(0.00105421 0.00292374 0.673849)
(0.000376236 0.000821514 0.308949)
(0.0960414 0.493127 -0.000472335)
(0.000581202 0.000886346 0.372595)
(0.139713 0.734601 0.00310068)
(0.000602368 0.00167936 0.345165)
(0.000452245 0.00145103 0.326587)
(-0.000267391 0.00119964 0.349383)
(7.04338e-05 0.000615274 0.111944)
(0.0803961 0.384139 -0.00127535)
(0.103038 0.478853 -0.000532812)
(0.000488771 0.000571319 0.204809)
(9.79194e-05 0.000700981 0.107249)
(0.169549 0.712761 -0.000321181)
(0.0844941 0.314104 -3.80883e-05)
(0.0804494 0.307966 -3.0789e-05)
(0.0959208 0.391038 -5.75689e-05)
(0.0673203 0.271149 -1.69038e-05)
(-0.858768 2.74534 -0.0210508)
(-0.0608408 1.48958 -5.21696e-05)
(-0.176453 1.64911 0.000726384)
(0.0745818 1.12581 -0.000146532)
(0.0609107 1.30359 -8.51467e-05)
(-0.002816 1.35172 -3.71602e-05)
(0.0359232 1.35798 -6.11311e-05)
(0.101667 1.11585 -0.000112448)
(0.136178 1.75902 -0.000124739)
(0.135666 1.7511 -0.000178123)
(0.102253 1.12313 -0.000101356)
(0.112999 1.15434 -0.000137136)
(0.121128 1.12734 -3.66333e-05)
(0.120067 1.11744 -0.000157891)
(0.114458 1.16929 -4.45308e-05)
(0.0690438 0.286126 -3.91879e-05)
(0.0641748 0.254664 -3.26597e-05)
(0.103551 0.406898 -4.06642e-05)
(0.114426 0.774974 -0.000155005)
(0.114771 0.72274 -0.00012722)
(-0.000252259 0.00165853 0.563044)
(0.00103794 0.00416861 0.886433)
(0.000789017 0.00224328 0.00013377)
(0.000504695 0.00424982 0.733439)
(0.00171262 0.00568883 0.000118361)
(0.000574433 0.0107209 0.273685)
(-0.0603504 0.578499 -0.00231256)
(0.00756268 0.000403363 1.7402)
(0.000419114 0.00112901 0.30257)
(0.0140642 0.515471 -0.00191194)
(0.000801379 0.000572027 0.243832)
(0.0230637 0.483657 -0.00167662)
(0.0609697 0.524936 -0.00191376)
(0.0607206 0.515309 -0.00186271)
(0.000410025 0.0009121 0.242992)
(0.000441112 0.000999009 0.267348)
(0.0571521 0.527681 -0.00181182)
(0.0519366 0.524371 -0.00150777)
(0.0469934 0.514716 -0.000174843)
(2.39018e-05 -2.89473e-05 0.222945)
(-0.0190945 -0.104856 0.00140881)
(0.000276196 0.00174802 0.500283)
(0.091382 0.50841 -0.00145586)
(0.00045333 0.00140893 0.317607)
(0.000455836 0.00141559 0.318948)
(0.484771 -0.193099 -0.00369419)
(0.226896 0.214555 0.00171874)
(0.000190785 0.000265022 0.0792675)
(-0.0529023 -0.520271 0.00170047)
(-0.0696046 -0.562308 0.00184684)
(-0.0557313 -0.547699 0.00226536)
(-0.0699854 -0.565344 0.00189568)
(-0.0754667 -0.609001 0.00253167)
(-0.0588995 -0.578476 0.0026549)
(-0.082953 -0.668683 0.00308477)
(0.179208 0.775871 -0.00385729)
(0.448018 2.19443 -0.0106745)
(0.18275 0.791594 -0.00392268)
(0.427439 2.0931 -0.0102143)
(-0.0662983 -0.536443 0.00059137)
(-0.0429432 -0.267883 0.00131275)
(-0.105492 -0.848539 0.0040983)
(-0.0487244 -0.303505 0.00149258)
(1.38722 0.919568 -0.00111048)
(1.38915 0.920741 -0.000507741)
(0.210168 0.912212 -0.00053791)
(0.640215 3.14134 -0.0031018)
(0.587656 2.88222 -0.00170191)
(0.236601 1.02699 -0.000944534)
(0.393968 2.33532 -0.00151534)
(0.392276 2.32594 -0.00237377)
(-0.00104752 -0.00978991 1.11261e-05)
(-0.000613252 -0.00772376 5.41778e-06)
(0.0221705 0.125427 -0.000126777)
(0.0225925 0.127302 -8.21553e-05)
(0.0472556 0.205013 -0.000883728)
(0.0344546 0.156403 -0.000670865)
(0.0573822 0.24976 -0.00111797)
(0.0262241 0.118111 -0.000474204)
(-0.109243 -0.879532 0.00428313)
(-0.069681 -0.506622 0.00247806)
(0.015058 0.0700929 -0.000218318)
(-0.0121764 -0.0672414 0.000388394)
(0.0638712 0.232962 -0.00117776)
(0.0718208 0.261924 -0.00130072)
(0.0347243 0.125206 -0.000635107)
(0.0401472 0.144753 -0.000719585)
(0.275855 1.24779 -0.000645544)
(0.177166 0.768531 -0.000236133)
(0.307959 1.45584 -0.000773548)
(0.135757 0.681204 -0.000236862)
(-0.0189468 -0.159457 0.000203415)
(-0.0432423 -0.320518 0.000406411)
(-0.00703236 -0.0513851 -4.25693e-06)
(0.000327726 -0.00311384 1.92457e-06)
(-0.018638 -0.12773 6.39806e-05)
(-0.0247571 -0.173107 0.000121171)
(0.0967221 0.395505 8.12774e-05)
(0.0838214 0.311665 -0.000153798)
(0.0839889 0.312248 -9.22894e-05)
(0.108149 0.443759 -0.000807955)
(0.164956 0.72464 -0.000329954)
(0.141543 0.652361 -0.000193681)
(0.172319 0.757625 -0.000373115)
(0.181167 0.844918 -0.000219437)
(-0.00301646 1.43965 -0.000257349)
(0.0635461 0.960469 -0.000446339)
(-0.00287341 1.31215 -0.000571067)
(0.0657351 0.991323 -0.000287146)
(-0.0676513 1.65097 -0.000276702)
(1.38827 0.921399 -0.000461325)
(-0.0645301 1.57397 -0.00064829)
(0.458961 3.93612 -0.00221337)
(0.0952874 0.374426 -0.000110031)
(0.0810471 0.318443 -0.000179511)
(0.0685247 0.251265 -0.000115208)
(0.0775152 0.284185 -2.07497e-05)
(0.0566557 0.297012 -0.000191152)
(0.183535 0.905927 -0.00133445)
(0.021491 0.119663 -9.09483e-05)
(0.0470362 0.252382 -0.000130917)
(0.766297 4.79533 0.00100979)
(0.375977 2.5119 -1.49327e-05)
(0.0410584 0.14892 -6.34254e-05)
(0.0440098 0.159579 -2.34177e-06)
(1.24207 0.825294 -0.0031492)
(0.0897278 0.62156 -0.00303978)
(0.248411 0.233032 -0.00114284)
(0.496963 -0.206026 0.000459148)
(0.235242 0.221367 -0.00116559)
(0.518652 -0.215386 0.000213724)
(0.0735834 0.269784 -7.17824e-07)
(0.0341156 0.119952 3.60541e-06)
(0.0382267 0.13863 7.46563e-06)
(0.285232 0.662678 -3.21313e-05)
(0.27549 0.808752 -0.00013136)
(0.000964233 0.00324454 0.725249)
(0.000395891 0.00175971 0.360515)
(0.000578463 0.000914931 0.381734)
(-0.203314 1.88382 -0.00026901)
(-0.0655012 1.60029 -9.86224e-05)
(1.38193 0.922189 -0.0014245)
(0.0302767 0.0286251 2.59293e-05)
(0.354083 -0.145533 0.000133105)
(0.355816 -0.144663 0.000572012)
(0.0309594 0.0292289 1.10003e-05)
(0.000590484 0.00209567 0.541421)
(0.000454519 0.00108051 0.378134)
(0.000415704 0.00116399 0.339722)
(0.000626661 0.0017326 0.361952)
(-0.0902992 -0.727303 0.00344988)
(1.3441 0.890074 -0.00517041)
(1.32907 0.880097 -0.00511414)
(1.30522 0.864259 -0.00501866)
(1.32755 0.879079 -0.00510944)
(0.398047 1.94813 -0.00953042)
(0.17599 0.761348 -0.00379009)
(0.177922 0.770175 -0.0038309)
(0.419805 2.05555 -0.0100423)
(0.269842 1.59515 -0.00773594)
(0.288704 1.70696 -0.00823769)
(-0.0251766 -0.148767 0.00074447)
(-0.0320026 -0.188275 0.000942413)
(-0.0561332 -0.349299 0.00173176)
(-0.0507612 -0.316056 0.00155764)
(-0.0416698 -0.244387 0.00123237)
(-0.034545 -0.202991 0.00101775)
(0.253047 2.15421 -0.0102899)
(0.23995 2.04184 -0.00983672)
(0.0240903 0.0889178 -0.000390922)
(0.0223621 0.0903204 -0.000431968)
(0.0338492 0.137595 -0.000418955)
(0.0321246 0.118817 -0.000548398)
(0.00108233 0.00350509 5.43627e-05)
(0.0244425 0.104257 -0.000358474)
(0.0337367 0.145544 -0.000591134)
(0.0192846 0.0853553 -0.00027438)
(0.0400746 0.148407 -0.000701081)
(0.0438303 0.178716 -0.000592961)
(0.0343878 0.127241 -0.000592231)
(0.0424859 0.635056 -0.00300815)
(-0.00171987 1.02335 -0.0047854)
(-0.00192099 1.12854 -0.00527475)
(0.0468308 0.700274 -0.00332184)
(-0.0544682 1.34357 -0.00623626)
(1.29536 0.85769 -0.00497175)
(-0.0569686 1.40487 -0.00652328)
(-0.0488841 1.20661 -0.00559929)
(-0.0532545 1.31382 -0.00609905)
(1.29169 0.855253 -0.00495746)
(-0.0019778 1.15717 -0.00540727)
(0.0511713 0.766301 -0.00362665)
(-0.00208956 1.21342 -0.00567157)
(0.0481585 0.720611 -0.00338929)
(0.226286 1.33847 -0.00624845)
(0.411056 2.55714 -0.0144868)
(0.237258 1.58136 -0.00765075)
(0.247224 1.46031 -0.00715663)
(0.404636 2.52461 -0.0121298)
(0.37712 2.3521 -0.0115462)
(0.195711 1.30156 -0.00760297)
(-0.0816196 -0.599656 0.00247766)
(-0.102336 -0.823828 0.00411244)
(-0.0671201 -0.445781 0.00219841)
(-0.0573568 -0.357551 0.00180268)
(-0.0804729 -0.539732 0.0025665)
(-0.0535623 -0.334663 0.0017217)
(-0.0251508 -0.139893 0.000741726)
(-0.0453495 -0.266489 0.00137688)
(0.00161755 0.00158449 0.000212237)
(-0.0479373 -0.282918 0.0014909)
(0.231423 1.0402 -0.00540969)
(0.179732 0.776915 -0.00383901)
(0.238359 1.12366 -0.00552257)
(0.17785 0.769008 -0.00380867)
(0.225744 1.01811 -0.00502836)
(0.241334 1.137 -0.00600955)
(0.368074 1.79967 -0.00900614)
(0.105395 0.412186 -0.00199549)
(0.0895295 0.350058 -0.00172686)
(0.0953656 0.347954 -0.00167511)
(0.0755146 0.275402 -0.00135803)
(0.0869896 0.340158 -0.00169165)
(0.0810969 0.317182 -0.00159318)
(0.0554756 0.200147 -0.000960923)
(0.0426826 0.1539 -0.000759029)
(0.119934 0.278049 -0.00132317)
(0.101384 0.234935 -0.00107876)
(-0.0207436 -0.157294 0.00080383)
(-0.0183085 -0.131002 0.000673348)
(0.0809836 0.414113 -0.002313)
(0.0856591 0.427733 -0.00205997)
(0.123693 0.653295 -0.00379485)
(-0.0192228 -0.190117 0.000876916)
(-0.0198703 -0.181291 0.000906126)
(-0.0171315 -0.188692 0.00062254)
(-0.0211472 -0.293508 0.00138101)
(0.0769315 0.36834 -0.00193758)
(0.0815368 0.407212 -0.00195141)
(-0.00481042 -0.0201925 0.00014792)
(0.00508359 0.0194027 1.73323e-05)
(-0.00156015 -0.0067623 9.95237e-05)
(0.0118394 0.0433316 -0.000139224)
(0.0175315 0.64529 -0.00300361)
(-0.00134721 0.844765 -0.00394555)
(0.0267117 0.5644 -0.00270947)
(0.035916 0.538164 -0.00262371)
(-0.104535 0.993076 -0.00596649)
(-0.0410271 1.01576 -0.00475392)
(1.20649 0.805848 -0.0015553)
(-0.450992 1.46749 -0.00630191)
(-0.0448972 1.10942 -0.00516066)
(-0.139677 1.29914 -0.00593139)
(-0.0121966 -0.0637239 0.000370359)
(-0.00911893 -0.0468874 0.000283395)
(-0.0109061 -0.0558389 0.000331726)
(-0.0104059 -0.0545635 0.000322448)
(-0.0249988 -0.137248 0.000597464)
(0.000887833 0.00207516 0.385321)
(0.0582359 0.392032 -0.00190757)
(0.091629 0.634892 -0.00319054)
(0.0601862 0.404865 -0.00202744)
(0.125965 0.459889 -0.00216938)
(0.153452 0.560538 -0.00264424)
(0.0727372 0.262591 -0.00123555)
(0.0618985 0.216612 -0.00102913)
(0.0812023 0.284677 -0.00152769)
(0.0890661 0.321743 -0.00152987)
(0.454992 -0.190112 -0.00239151)
(0.212092 0.194797 -0.000109643)
(0.25957 0.241465 -0.000984579)
(0.526107 -0.219454 -0.000614162)
(0.221182 0.959142 -0.00462833)
(0.571859 2.80344 -0.013203)
(0.227914 0.98852 -0.00467944)
(0.549877 2.69548 -0.0128213)
(-0.0664745 -0.537657 0.00084019)
(-0.00156392 -0.0129205 2.61154e-05)
(-0.00135656 -0.011642 1.9505e-05)
(0.218828 0.949305 -0.00149109)
(0.68092 3.33998 -0.00624851)
(0.212882 0.923479 -0.00170356)
(-0.0615971 -0.44804 0.00216345)
(0.177277 0.779824 -0.000691851)
(0.144211 0.665772 -0.000680626)
(0.177644 0.781509 -0.000799195)
(0.144017 0.664803 -0.00059538)
(0.0639955 0.234492 -0.000244989)
(0.0680529 0.249436 -0.000212026)
(-0.0335019 -0.245789 0.000244909)
(0.163036 0.807158 -0.000824173)
(0.0639658 0.33649 -0.000343246)
(0.0334294 0.12114 -0.000127073)
(0.0361022 0.130869 -0.000109031)
(1.38946 0.92104 -0.000408223)
(0.0128656 0.0120326 -3.57794e-06)
(0.342363 -0.142103 1.13375e-05)
(0.00829137 0.00771459 -1.59368e-06)
(0.346486 -0.143749 2.87585e-06)
(-0.0214976 -0.13575 0.000642235)
(-0.0239921 -0.15112 0.000722107)
(-0.0408592 -0.255043 0.00124827)
(-0.0953131 -0.767315 0.00366855)
(-0.0357612 -0.223635 0.00108975)
(0.184511 0.79937 -0.00395743)
(0.196151 0.85056 -0.00419469)
(0.100436 0.439725 -0.00208066)
(0.0751855 0.345229 -0.0016279)
(0.104043 0.455632 -0.0021589)
(0.0717787 0.329447 -0.00154943)
(0.0414443 0.188906 -0.000842434)
(0.0659757 0.287706 -0.00131257)
(0.0728911 0.318225 -0.00146941)
(0.0473243 0.216191 -0.000983694)
(0.0579467 0.21202 -0.0011)
(0.056351 0.206046 -0.0010691)
(0.0620856 0.226475 -0.00115058)
(0.0582194 0.212467 -0.00109062)
(0.0128616 0.0655787 -0.00028604)
(0.0659411 0.323528 -0.00150444)
(-0.0691401 -0.502558 0.00245336)
(0.0225731 0.107725 -0.000419911)
(-0.00840582 -0.0471001 0.000280836)
(0.0296717 0.14315 -0.000604057)
(0.0314162 0.113686 -0.000595933)
(0.0300593 0.108693 -0.00056988)
(0.0335093 0.120837 -0.000616536)
(0.0309164 0.111538 -0.000576551)
(1.3075 0.865742 -0.00502396)
(1.27399 0.843561 -0.00481789)
(0.128288 0.120856 -0.000671594)
(0.363417 -0.150868 0.000441847)
(0.37342 -0.15502 0.000455757)
(0.116296 0.109547 -0.000612594)
(0.474229 -0.196626 0.000526152)
(0.218765 0.206061 -0.00111019)
(0.204641 0.192822 -0.00104574)
(0.45465 -0.188614 0.000519805)
(8.1661e-05 -0.012705 2.42642e-05)
(0.000176289 -0.00575899 1.6693e-05)
(-0.0519487 -0.511065 0.00139483)
(-0.000128398 -0.0280009 9.25594e-05)
(4.31329e-06 -0.0183281 5.05951e-05)
(-0.0677142 -0.547308 0.00150221)
(-0.0542135 -0.532955 0.00203135)
(-0.000111601 -0.0268199 0.000114403)
(-6.72431e-05 -0.0235341 9.117e-05)
(-0.0720063 -0.58142 0.00219775)
(-0.0724121 -0.584655 0.00223957)
(1.31534e-05 -0.0175737 8.54588e-05)
(-0.0580218 -0.569943 0.00252666)
(-0.000293442 -0.0401355 0.00017978)
(-0.0802324 -0.646982 0.00288269)
(1.36753 0.905732 -0.00512657)
(1.364 0.903368 -0.005163)
(1.35985 0.900583 -0.00519006)
(1.36551 0.904357 -0.00517421)
(0.204575 0.887356 -0.00429194)
(0.524732 2.57239 -0.0123603)
(0.542108 2.6575 -0.0126679)
(0.19047 0.826187 -0.00402545)
(0.180033 0.779565 -0.00387134)
(0.236979 1.06971 -0.00527407)
(0.267671 1.26312 -0.00617113)
(0.441478 2.16223 -0.0105292)
(0.181528 0.786169 -0.00389971)
(0.244371 1.10347 -0.0054227)
(0.257005 1.21245 -0.0059429)
(0.43396 2.12522 -0.010367)
(1.38645 0.919028 -0.00223239)
(1.38287 0.916683 -0.00176679)
(1.38466 0.917867 -0.00119915)
(1.38229 0.916303 -0.0016951)
(0.41698 2.47215 -0.00285076)
(0.453205 2.68618 -0.003913)
(-0.00114195 -0.010338 1.28878e-05)
(-0.0664087 -0.537171 0.000777016)
(-0.00126397 -0.0110716 1.72999e-05)
(0.0215972 0.122129 -0.000233233)
(0.0218547 0.123629 -0.000196674)
(0.0220687 0.124867 -0.000140839)
(0.0219635 0.124265 -0.000183636)
(0.239829 1.04087 -0.00112913)
(0.225796 0.979621 -0.00142096)
(0.604902 2.96696 -0.00429987)
(-0.0559733 -0.372054 0.0018075)
(-0.0447751 -0.279171 0.00136949)
(-0.0651831 -0.473906 0.00229749)
(-0.0468229 -0.291788 0.00143322)
(-0.0607368 -0.403413 0.00196793)
(0.47925 4.10301 -0.00371334)
(0.514976 4.40929 -0.00336061)
(0.083758 0.311436 -0.000175993)
(0.108196 0.443985 0.000309153)
(0.108289 0.444398 -0.000924551)
(0.0836437 0.311041 -0.000239206)
(0.14052 0.647943 -0.000454197)
(0.175824 0.773232 -0.000484233)
(0.177049 0.778761 -0.000590644)
(0.143604 0.662713 -0.000509674)
(0.108245 0.444223 0.000189583)
(0.0834784 0.31046 -0.000323867)
(0.10817 0.443931 -0.00104166)
(0.0835873 0.310842 -0.000262874)
(0.0618982 0.936458 -0.000472127)
(-0.00276501 1.25453 -0.000624945)
(-0.0029257 1.3107 -0.000904274)
(0.0657592 0.994871 -0.000752694)
(-0.0665849 1.62176 -0.0012263)
(1.3881 0.92012 -0.000868101)
(-0.0691535 1.68429 -0.00162993)
(-0.0631493 1.53976 -0.000739715)
(-0.0647554 1.57748 -0.00107886)
(1.38897 0.920679 -0.000764717)
(-0.00309258 1.38376 -0.00104327)
(0.0699312 1.05595 -0.00106297)
(-0.00335043 1.49665 -0.00146739)
(0.0678213 1.02595 -0.000844544)
(0.279488 1.2643 -0.000711804)
(0.217035 0.941956 -0.000632585)
(0.669506 3.28477 -0.0026622)
(0.383286 1.81234 -0.00173423)
(0.312037 1.47512 -0.000806826)
(0.649959 3.18848 -0.00224306)
(0.228298 0.990904 -0.000784697)
(0.341822 1.54649 -0.00144227)
(0.0786167 0.308849 -0.000194149)
(0.0723496 0.284168 -0.000228585)
(0.0711609 0.260859 -0.000147824)
(0.0693411 0.25415 -0.000195964)
(0.071564 0.28108 -0.000241241)
(0.665603 4.16422 -0.00307482)
(0.408136 2.41935 -0.00184447)
(0.64859 4.05891 -0.00318705)
(0.389901 2.60779 -0.00236612)
(0.415021 2.7753 -0.00217103)
(0.394087 2.33652 -0.00200713)
(-0.0316303 -0.232762 0.000154743)
(-0.0199978 -0.135437 0.000137042)
(-0.000950947 -0.00927677 9.19993e-06)
(-0.019244 -0.131093 8.74192e-05)
(-0.000895279 -0.00911655 8.00168e-06)
(0.0632053 0.331931 -0.000212264)
(0.160617 0.79428 -0.000507832)
(0.163019 0.806724 -0.000619081)
(0.0482014 0.259767 -0.000264571)
(0.0222367 0.125738 -0.000111974)
(0.0481933 0.259191 -0.000168366)
(0.022294 0.1259 -9.61779e-05)
(0.0416589 0.151046 -8.68739e-05)
(0.0378245 0.137106 -0.000104262)
(0.0660656 0.240949 -0.00121229)
(0.0685262 0.249906 -0.00125004)
(0.032157 0.112417 -0.000571667)
(0.0362191 0.130589 -0.000658551)
(0.038075 0.13311 -0.000661448)
(0.0379115 0.136686 -0.000684615)
(0.274902 0.807207 -0.000367561)
(0.275321 0.808296 -0.000217542)
(0.28543 0.663308 -0.000237165)
(0.285498 0.663431 -0.000194197)
(-0.20437 1.89316 -0.00034687)
(-0.0670377 1.63678 -0.000453007)
(1.38904 0.921114 -0.000400399)
(-0.860742 2.79866 -0.000963454)
(-0.0659394 1.60919 -0.000558163)
(-0.200074 1.85165 -0.000718254)
(0.0702054 0.257419 -6.23114e-05)
(0.075819 0.277963 -3.63409e-05)
(0.0432853 0.15698 -2.36906e-05)
(0.0391796 0.137808 -5.30669e-05)
(0.0377063 0.132551 1.70849e-06)
(0.0457657 0.165952 -1.02412e-05)
(0.414561 2.45422 -0.0116256)
(0.384302 2.27484 -0.0108647)
(-0.000723292 -0.00721796 4.69789e-05)
(-0.00354372 -0.0235475 0.000125806)
(-0.0283681 -0.178082 0.000859957)
(-0.0251085 -0.158 0.000756967)
(-0.00848532 -0.0521539 0.000265735)
(-0.00482339 -0.0309566 0.000161576)
(1.34304 0.889385 -0.00516549)
(1.35324 0.896166 -0.00519232)
(1.36067 0.901118 -0.00519567)
(1.35409 0.896734 -0.00519289)
(-0.0227161 -0.134525 0.000673691)
(-0.0168903 -0.100806 0.000505737)
(0.348284 2.06054 -0.00986402)
(0.373883 2.2129 -0.0105825)
(-0.0938206 -0.755405 0.00360504)
(-0.0298261 -0.187065 0.000905074)
(-0.0339892 -0.212718 0.00103498)
(-0.0101575 -0.0618333 0.000313059)
(-0.0148391 -0.0889339 0.000447126)
(0.199811 0.866541 -0.00425108)
(0.514289 2.52109 -0.0121562)
(0.191842 0.832071 -0.00406078)
(0.479561 2.35005 -0.0113909)
(0.282708 2.40765 -0.0115146)
(0.291061 2.47921 -0.0118647)
(0.0643135 0.262975 -0.000912243)
(0.0521944 0.193524 -0.000929002)
(0.0550215 0.204048 -0.000981187)
(0.0603749 0.246773 -0.00148467)
(0.0954306 0.417648 -0.00197099)
(0.0631963 0.289707 -0.00135291)
(0.091006 0.398136 -0.00187285)
(0.0672633 0.308535 -0.0014471)
(0.0583447 0.21642 -0.00104213)
(0.0559639 0.207556 -0.000998963)
(0.0691278 0.282782 -0.00098476)
(-0.0024227 1.37633 -0.00642683)
(0.057469 0.86117 -0.00406906)
(0.0587821 0.880967 -0.00416012)
(-0.00236555 1.34922 -0.00630204)
(-0.06425 1.58312 -0.00734255)
(1.33993 0.887302 -0.00515555)
(-0.0649934 1.60118 -0.00742285)
(-0.00244259 1.38568 -0.00646725)
(0.0602665 0.903386 -0.00426048)
(-0.00247639 1.39897 -0.00652547)
(0.0592185 0.887553 -0.00418995)
(-0.0638115 1.57241 -0.0072962)
(1.33675 0.885195 -0.00514369)
(-0.0625997 1.54278 -0.00716036)
(0.316885 2.69994 -0.0128651)
(0.310967 2.6493 -0.0126349)
(0.0418637 0.155068 -0.000735213)
(0.0461348 0.170968 -0.000815705)
(0.0538761 0.220042 -0.00131599)
(0.0509856 0.189025 -0.000906488)
(0.0585646 0.239327 -0.000824458)
(0.0475729 0.17632 -0.000842424)
(0.0795429 0.34757 -0.00161915)
(0.057814 0.264786 -0.0012289)
(0.0847874 0.370709 -0.00173605)
(0.0530666 0.242798 -0.00111801)
(-0.0576504 1.42151 -0.00660247)
(-0.0599208 1.47722 -0.00685794)
(1.31583 0.871295 -0.00506164)
(0.0520158 0.779054 -0.00368787)
(-0.00212515 1.22953 -0.00574875)
(-0.00223368 1.28524 -0.00600563)
(0.0543566 0.814273 -0.00385229)
(-0.00226667 1.30157 -0.00608163)
(0.0569045 0.852642 -0.00403061)
(0.0551568 0.826321 -0.00390717)
(-0.00233987 1.33753 -0.00625011)
(-0.0605905 1.49363 -0.00693394)
(1.31993 0.874016 -0.00507649)
(-0.0621099 1.53083 -0.00710778)
(0.075768 0.296857 -0.00150675)
(0.0759568 0.297466 -0.00151079)
(0.0558383 0.203988 -0.0010567)
(0.055997 0.204705 -0.00106225)
(0.0762028 0.29874 -0.00151451)
(0.24145 1.13851 -0.00559954)
(0.405079 1.9829 -0.00972583)
(0.227031 1.02414 -0.00506215)
(0.176066 0.761847 -0.0037996)
(0.177098 0.766476 -0.00381775)
(0.234107 1.05661 -0.00521377)
(0.413024 2.02213 -0.00988315)
(0.252885 1.19289 -0.00585382)
(0.0773123 0.30254 -0.00153212)
(0.0769376 0.301122 -0.0015265)
(0.0759656 0.297454 -0.00151058)
(0.0559137 0.204218 -0.00105714)
(0.0574145 0.209569 -0.00107865)
(0.263341 1.75521 -0.00845349)
(0.419495 2.61773 -0.0126358)
(0.276017 1.6317 -0.00789086)
(0.282699 1.67135 -0.00807891)
(0.450359 2.81079 -0.0135354)
(0.440601 2.74983 -0.0132543)
(0.270111 1.80048 -0.00865517)
(-0.00277729 -0.0178296 0.000116478)
(-0.0272855 -0.160975 0.000805299)
(0.0495581 0.242088 -0.00110166)
(0.00475647 0.0226907 -7.33329e-05)
(-0.0297402 -0.175182 0.000876444)
(-0.0104709 -0.059675 0.000324976)
(-0.0663717 -0.440646 0.00216612)
(-0.0544132 -0.338606 0.0016751)
(-0.0663454 -0.48228 0.0023425)
(-0.0526453 -0.327674 0.00161638)
(-0.0623386 -0.413965 0.00202345)
(0.461605 2.88118 -0.0138619)
(0.47083 2.93892 -0.0141252)
(0.293541 1.95719 -0.0093751)
(0.287619 1.91758 -0.00919388)
(-0.0223182 -0.124269 0.000654945)
(-0.0392873 -0.230495 0.00115822)
(0.0429083 0.209028 -0.000936344)
(0.00145136 0.00519915 1.3908e-05)
(0.0366628 0.177959 -0.000781399)
(-0.0368948 -0.216607 0.00108602)
(-0.0134959 -0.0761305 0.000407601)
(0.0294233 0.106279 -0.000556013)
(0.0297426 0.107518 -0.000563757)
(0.0294502 0.106348 -0.000555765)
(0.0303752 0.109608 -0.000568548)
(0.116238 0.340381 -0.00161408)
(0.141954 0.415906 -0.00200698)
(0.189122 0.438782 -0.00217764)
(0.183806 0.426437 -0.00211475)
(0.156562 0.363174 -0.00178917)
(0.164662 0.381993 -0.00188953)
(0.148908 0.436335 -0.00211237)
(-0.595581 1.93941 -0.0086017)
(1.30202 0.862102 -0.0049978)
(-0.0562372 1.38695 -0.00643979)
(-0.167644 1.5583 -0.00715502)
(-0.56803 1.84987 -0.00826462)
(-0.498749 1.62367 -0.00710679)
(-0.516694 1.68243 -0.00746808)
(-0.14493 1.34792 -0.00618578)
(-0.0503974 1.24374 -0.00576946)
(1.28435 0.850363 -0.00490489)
(-0.550848 1.79405 -0.00796246)
(0.0875619 0.319407 -0.00154587)
(0.0807082 0.294384 -0.00144119)
(0.141519 0.133334 -0.000736606)
(0.399118 -0.16569 0.000490625)
(0.385582 -0.160068 0.000472522)
(0.155232 0.146266 -0.000801922)
(0.0542088 0.189645 -0.000908134)
(0.05059 0.182466 -0.000881097)
(0.0460662 0.166124 -0.00081242)
(0.0408191 0.142711 -0.000702786)
(0.18609 0.175359 -0.000954078)
(0.415746 -0.172583 0.000501989)
(0.433321 -0.179841 0.000515546)
(0.17087 0.161014 -0.000876925)
(0.681621 3.34323 -0.00663734)
(0.23006 0.997845 -0.00194528)
(0.254044 1.10184 -0.00252187)
(0.687185 3.37008 -0.00775919)
(0.217081 0.941412 -0.00344367)
(0.636253 3.11991 -0.0105159)
(0.222574 0.965419 -0.00326049)
(0.656702 3.22004 -0.0116168)
(0.213409 0.925509 -0.00409252)
(0.601009 2.94667 -0.0125407)
(0.245662 1.06542 -0.00454311)
(0.607626 2.97913 -0.0130113)
(-0.0665394 -0.538111 0.000958989)
(-0.0338022 -0.247765 0.000470784)
(-0.0474188 -0.345775 0.00160709)
(-0.0602479 -0.438308 0.00211333)
(-0.0981231 -0.789736 0.00378763)
(-0.0524909 -0.516296 0.00157444)
(-0.00530942 -0.160442 0.000523004)
(-0.0052548 -0.15888 0.000475135)
(9.01471e-06 -0.0179279 6.00911e-05)
(0.000167927 -0.00635767 1.90619e-05)
(-0.00169211 -0.0137119 2.90715e-05)
(-0.0668434 -0.540443 0.00123602)
(-0.00204375 -0.0158821 3.84388e-05)