/*--------------------------------*- C++ -*----------------------------------*\
| =========                 |                                                 |
| \\      /  F ield         | OpenFOAM: The Open Source CFD Toolbox           |
|  \\    /   O peration     | Version:  2306                                  |
|   \\  /    A nd           | Website:  www.openfoam.com                      |
|    \\/     M anipulation  |                                                 |
\*---------------------------------------------------------------------------*/
FoamFile
{
    version     2.0;
    format      ascii;
    arch        "LSB;label=32;scalar=64";
    class       volScalarField;
    location    "0.95";
    object      p;
}
// * * * * * * * * * * * * * * * * * * * * * * * * * * * * * * * * * * * * * //

dimensions      [0 2 -2 0 0 0 0];

internalField   nonuniform List<scalar> 
111542
(
60.3809
61.7329
64.9405
70.1644
77.4763
87.0818
99.1299
113.634
130.077
147.003
161.826
170.522
169.079
156.404
135.675
112.659
91.2853
72.9474
57.6992
45.3619
35.5655
28.0161
22.338
18.021
14.7329
12.207
10.1717
8.59604
7.42786
6.53652
5.83612
5.2679
4.84164
4.48447
4.14257
3.77205
3.3181
2.77467
2.04009
1.02144
59.2964
60.6086
63.7829
68.9433
76.2432
85.9932
98.5545
114.162
132.625
152.838
172.054
184.724
183.275
166.529
140.44
113.697
90.3919
71.0634
55.3882
42.979
33.3955
26.1644
20.7517
16.7599
13.7553
11.4222
9.59437
8.187
7.11024
6.27017
5.60189
5.0641
4.63049
4.25905
3.90803
3.53792
3.10376
2.55975
1.8349
0.871548
57.1497
58.3941
61.423
66.395
73.5742
83.465
96.7691
114.279
136.635
163.644
191.914
212.768
212.091
186.063
149.591
116.478
89.5068
68.176
51.6396
39.0432
29.6408
23.0728
18.389
14.8913
11.9999
9.65207
7.89262
6.62223
5.69292
4.99867
4.47606
4.081
3.77613
3.52621
3.29405
3.04195
2.72401
2.28409
1.64924
0.746273
53.9961
55.1111
57.8395
62.3861
69.1283
78.7888
92.509
111.976
139.579
178.536
213.403
255.447
260.256
218.615
165.969
125.594
93.0588
68.4029
50.2923
37.0161
23.2707
17.0889
14.867
13.5177
11.4902
9.37869
7.69435
6.4277
5.443
4.66271
4.05006
3.57314
3.19981
2.89718
2.63381
2.376
2.0765
1.67259
1.06965
0.150154
49.951
50.8531
53.0732
56.8332
62.5662
71.1148
83.9204
103.4
133.568
178.3
254.961
340.449
363.042
254.063
168.748
120.685
82.2919
56.4045
39.2342
28.0997
21.0583
5.76347
4.90663
5.43979
4.86692
4.14396
3.64355
3.27806
2.97091
2.71393
2.50966
2.34988
2.22383
2.1162
2.01506
1.90322
1.74851
1.49657
1.02714
0.0449963
45.2168
45.8148
47.2956
49.8425
53.8273
59.9849
69.6463
85.266
111.603
166.278
259.71
453.583
616.893
242.133
166.603
110.999
65.6043
40.3847
25.3947
16.3351
16.3438
15.9848
14.315
8.78545
5.2081
3.52902
2.61822
1.96199
1.46575
1.11754
0.887726
0.741166
0.65236
0.602781
0.579294
0.568797
0.555841
0.528428
0.49522
0.592899
40.0949
40.3146
40.8655
41.8319
43.3925
45.8871
49.902
56.4246
67.1494
106.517
181.908
410.166
1946.41
-428.1
204.097
76.3721
30.447
15.8726
7.79726
-1.9532
-7.04959
15.2093
15.2246
9.45341
5.78125
4.27473
3.54488
2.99892
2.56551
2.25327
2.03827
1.88725
1.77909
1.69941
1.63918
1.59189
1.54348
1.48983
1.43828
1.45988
34.9681
34.7788
34.3177
33.5443
32.3885
30.6787
28.0134
23.4464
14.5848
16.7545
-0.607038
-164.075
-1007.52
-1036.83
-312.321
-101.721
-46.3758
-25.7475
-16.5063
-10.2839
-3.73917
-7.72335
-5.74377
-4.17656
-3.46772
-2.6763
-1.84545
-1.16194
-0.629245
-0.19201
0.180405
0.498265
0.767809
0.993238
1.17676
1.3159
1.39565
1.38522
1.21902
0.764759
30.241
29.6787
28.2652
25.8648
22.2093
16.7444
8.45162
-4.56071
-25.9227
-49.2978
-123.278
-268.474
-478.839
-506.296
-320.386
-175.286
-100.467
-61.0516
-38.9628
-24.9522
-14.9063
-8.12153
-4.19047
-1.44035
0.169285
1.15523
1.85968
2.36155
2.69525
2.91007
3.04673
3.12866
3.16786
3.16946
3.1321
3.04796
2.89325
2.6194
2.13267
1.24537
26.3333
25.4491
23.2588
19.5568
13.9638
5.75772
-6.26221
-24.0617
-50.9215
-92.4581
-150.547
-223.536
-288.929
-296.72
-238.706
-165.352
-109.954
-74.4059
-51.3346
-35.3309
-23.9885
-16.448
-11.5181
-8.02092
-5.53414
-3.75721
-2.41546
-1.36489
-0.539971
0.108978
0.624993
1.03834
1.3662
1.61642
1.78722
1.87148
1.84609
1.66877
1.27987
0.631702
23.5478
22.4413
19.7144
15.1375
8.29076
-1.54801
-15.4774
-34.9817
-61.9164
-98.126
-143.53
-192.859
-231.317
-238.163
-207.422
-158.395
-113.912
-81.4641
-58.671
-42.0544
-29.707
-20.6836
-14.107
-9.28952
-5.76613
-3.20147
-1.31991
0.0736037
1.10365
1.8577
2.40336
2.79067
3.05285
3.20814
3.25519
3.20456
3.03281
2.69377
2.11596
1.17159
22.1011
20.8913
17.8799
12.8895
5.42666
-5.13761
-19.8147
-39.7386
-66.0511
-99.0797
-137.279
-175.197
-202.851
-208.717
-188.741
-152.583
-115.043
-84.591
-61.9572
-45.0562
-32.2874
-22.7562
-15.7786
-10.7122
-7.07315
-4.44056
-2.51633
-1.09332
-0.0318002
0.762887
1.35823
1.80203
2.12692
2.35532
2.43226
2.43263
2.31464
2.02824
1.5241
0.750797
59.7971
61.1014
64.2414
69.3089
76.3929
85.691
97.3842
111.442
127.349
143.736
158.088
166.451
164.855
152.414
132.218
109.831
89.0977
71.2842
56.455
44.4209
34.8954
27.5294
21.9326
17.703
14.4715
11.9474
9.95029
8.40245
7.22809
6.33176
5.63753
5.09379
4.66763
4.31263
3.98432
3.6408
3.23649
2.7225
2.01934
1.03034
58.7239
60.004
63.0916
68.0973
75.1726
84.6202
96.7951
111.919
129.813
149.427
168.082
180.456
178.666
162.194
136.784
110.826
88.2165
69.4357
54.183
42.1028
32.7861
25.7134
20.3893
16.4622
13.4987
11.1793
9.35912
7.95504
6.8775
6.04061
5.38221
4.86
4.44057
4.08631
3.75987
3.42244
3.03045
2.52914
1.84653
0.905401
56.6063
57.8227
60.7638
65.5832
72.5381
82.1181
95.0066
111.979
133.672
159.924
187.412
207.547
206.891
181.319
145.773
113.652
87.4672
66.7049
50.5871
38.3381
29.2992
22.8669
18.1767
14.6726
11.8035
9.48024
7.7357
6.47298
5.54661
4.85254
4.32998
3.93654
3.63613
3.39482
3.17943
2.95391
2.67502
2.28259
1.69197
0.791931
53.4981
54.5884
57.2342
61.6348
68.1586
77.509
90.7997
109.686
136.537
174.57
209.894
251.237
255.749
214.384
162.861
123.365
91.4372
67.2029
49.3915
36.3699
22.9879
17.1843
14.7862
13.1983
11.0313
8.87309
7.19904
5.97142
5.03765
4.31186
3.75314
3.32655
2.99991
2.74126
2.5222
2.31256
2.07109
1.733
1.18852
0.253046
49.5142
50.3959
52.544
56.1742
61.7107
69.9764
82.3844
101.319
130.771
175.558
251.411
335.941
357.612
249.376
166.428
119.286
81.1838
55.4362
38.3818
27.296
19.7466
6.48692
5.52814
5.85048
5.06803
4.18267
3.57702
3.13834
2.77316
2.47076
2.23485
2.05695
1.92689
1.82995
1.75352
1.68417
1.59507
1.43018
1.05166
0.0732108
44.8557
45.4384
46.8636
49.3086
53.1393
59.0771
68.4354
83.6561
109.508
164.229
257.619
450.559
611.916
238.878
167.104
110.894
64.8002
39.2804
24.4212
15.4622
10.8376
14.331
12.7466
7.66435
4.36267
2.85716
2.10536
1.60043
1.23463
0.989778
0.836845
0.743146
0.688896
0.661252
0.653783
0.663322
0.68687
0.723556
0.781266
0.925144
39.8165
40.0304
40.547
41.4491
42.9159
45.2851
49.1451
55.5076
66.1546
105.683
181.689
413.164
1934.47
187.119
79.5474
31.2404
15.4932
7.39401
-3.26074
-13.1852
14.7426
14.184
8.43421
5.04742
3.73715
3.11026
2.62431
2.22496
1.92353
1.70019
1.52778
1.39229
1.28547
1.20536
1.15254
1.12653
1.13423
1.20241
1.4521
34.7727
34.594
34.1215
33.3248
32.1429
30.4151
27.7622
23.2944
14.748
17.1851
0.916469
-157.599
-987.312
-1033.52
-307.464
-99.2747
-44.6633
-24.9596
-16.3108
-10.2979
-2.4751
-8.4851
-6.68279
-5.09516
-4.14119
-3.14605
-2.2008
-1.4442
-0.854943
-0.37521
0.0260915
0.361837
0.641764
0.87287
1.06272
1.21542
1.32484
1.36669
1.27459
0.875775
30.1398
29.5857
28.1807
25.7977
22.1803
16.7938
8.65706
-4.05702
-24.8702
-48.0432
-120.436
-263.33
-471.571
-497.678
-314.909
-171.582
-98.1364
-59.775
-38.3429
-24.7098
-14.7926
-8.87266
-4.98512
-2.13762
-0.381398
0.715297
1.48007
2.01354
2.36347
2.58245
2.71353
2.78354
2.80807
2.79594
2.75051
2.66931
2.53408
2.30143
1.88263
1.10076
26.3021
25.4306
23.2736
19.6218
14.1146
6.05769
-5.71176
-23.0979
-49.2911
-89.8026
-146.486
-217.77
-281.908
-289.281
-232.322
-160.752
-107.042
-72.7428
-50.4758
-34.9932
-24.03
-16.803
-11.9448
-8.43584
-5.93063
-4.13437
-2.77211
-1.70219
-0.861308
-0.20082
0.322776
0.74059
1.07129
1.32439
1.50176
1.59874
1.59595
1.45484
1.12026
0.550334
23.5731
22.4849
19.8002
15.2922
8.56702
-1.08169
-14.7157
-33.7752
-60.0586
-95.3675
-139.615
-187.643
-225.116
-231.836
-201.785
-154.13
-111.036
-79.691
-57.659
-41.5571
-29.5727
-20.8061
-14.3659
-9.61932
-6.13248
-3.58139
-1.69942
-0.300481
0.734374
1.49057
2.03572
2.42037
2.67863
2.83087
2.88437
2.84164
2.68522
2.37566
1.85003
1.00381
22.1614
20.9595
18.0085
13.0795
5.77046
-4.59123
-18.9566
-38.4375
-64.0972
-96.324
-133.558
-170.478
-197.393
-203.174
-183.799
-148.599
-112.187
-82.7496
-60.8528
-44.4657
-32.0494
-22.7638
-15.9466
-10.9886
-7.39176
-4.77618
-2.85874
-1.43634
-0.372612
0.424694
1.02185
1.46603
1.78846
2.00551
2.11464
2.12592
2.01968
1.75859
1.30196
0.624616
58.6988
59.9348
62.9012
67.6683
74.3203
83.041
93.998
107.144
121.991
137.261
150.547
158.141
156.366
144.393
125.206
104.069
84.5477
67.7554
53.7402
42.3332
33.2813
26.2289
20.8162
16.7219
13.6089
11.1874
9.28674
7.81478
6.69289
5.83937
5.18421
4.67562
4.27357
3.941
3.64063
3.33371
2.97724
2.51837
1.88746
0.992695
57.6516
58.8671
61.7787
66.4836
73.1226
81.9766
93.3731
107.512
124.224
142.526
159.918
171.184
169.292
153.478
129.384
104.945
83.6854
65.9793
51.557
40.1142
31.2721
24.4418
19.2535
15.4738
12.6612
10.4584
8.71784
7.36545
6.32236
5.51221
4.87716
4.37576
3.97378
3.63877
3.33865
3.03857
2.69809
2.26419
1.66845
0.835913
55.5886
56.7438
59.5115
64.0323
70.546
79.5085
91.5572
107.421
127.717
152.324
178.13
197.072
195.921
171.329
137.716
107.577
82.9838
63.4052
48.1595
36.5841
28.1413
21.7973
17.0385
13.6316
10.9591
8.80323
7.16497
5.96867
5.08886
4.43087
3.93786
3.56917
3.28949
3.06882
2.87846
2.68906
2.46315
2.14583
1.6501
0.841317
52.5649
53.5988
56.0809
60.1946
66.286
75.0135
87.4245
105.091
130.299
166.209
201.101
240.673
244.496
204.209
155.085
117.77
87.3832
64.2422
47.2036
34.7559
21.5702
15.977
13.5975
12.0045
9.84708
7.70214
6.03381
4.80677
3.87468
3.15596
2.61049
2.20428
1.90536
1.6844
1.51754
1.3817
1.24525
1.05375
0.706804
0.0344967
48.6955
49.5287
51.5326
54.9062
60.0503
67.7406
79.3181
97.0669
124.872
168.666
242.008
323.819
343.818
237.703
159.273
114.976
78.1254
53.0839
36.4844
25.7135
18.4881
3.32452
3.97738
5.13351
4.4359
3.43861
2.74553
2.25923
1.87131
1.56134
1.32523
1.15062
1.02662
0.940333
0.887027
0.863612
0.86397
0.856246
0.73093
0.117038
44.1776
44.7246
46.0372
48.2792
51.7992
57.2833
65.9923
80.295
104.896
158.647
250.692
440.394
596.018
226.079
162.945
111.468
64.7492
38.5309
23.2864
14.0991
7.21102
5.15256
5.60386
2.20753
-0.466346
-1.75331
-2.35118
-2.71226
-2.94715
-3.06832
-3.09651
-3.06253
-2.9737
-2.84339
-2.67238
-2.45418
-2.17019
-1.78591
-1.22501
-0.253012
39.2939
39.4892
39.9351
40.7086
41.9843
44.0896
47.5988
53.5389
63.787
102.992
179.337
413.696
1907.33
184.705
87.9589
33.6374
15.6308
6.66042
-2.59408
-5.76423
14.4706
12.3615
6.06076
2.51424
1.04927
0.286471
-0.27267
-0.688093
-0.96449
-1.13095
-1.22064
-1.25391
-1.23673
-1.16989
-1.04516
-0.843724
-0.536756
-0.0749184
0.583483
34.4158
34.2356
33.7387
32.8968
31.6604
29.8855
27.2331
22.9097
14.8788
17.8179
3.79283
-146.096
-964.177
-1021.13
-296.082
-92.492
-41.6305
-24.0591
-16.3414
-10.6832
-3.31599
-8.16839
-7.83627
-6.99621
-6.03851
-4.91586
-3.87952
-3.04559
-2.38383
-1.84183
-1.38593
-0.997608
-0.663678
-0.372073
-0.104307
0.151893
0.405476
0.644951
0.806991
0.662389
29.941
29.3976
28.0147
25.6674
22.1231
16.8871
9.05025
-3.08466
-22.8081
-45.0393
-113.94
-251.307
-453.412
-479.478
-300.843
-162.387
-92.9408
-57.1829
-37.2243
-24.4267
-15.1557
-9.72796
-6.1212
-3.37115
-1.61382
-0.520492
0.230521
0.757045
1.11111
1.34332
1.49806
1.60271
1.67347
1.71917
1.74923
1.76508
1.75631
1.6881
1.47352
0.915626
26.2384
25.3921
23.2885
19.7361
14.4012
6.63777
-4.63714
-21.1993
-46.0435
-84.4054
-138.107
-205.763
-266.861
-273.846
-219.499
-151.757
-101.454
-69.5534
-48.7943
-34.2801
-24.0097
-17.3475
-12.5201
-9.011
-6.58028
-4.85382
-3.5218
-2.45383
-1.60146
-0.923421
-0.377822
0.0656016
0.426762
0.7145
0.937245
1.09355
1.16967
1.13256
0.925789
0.482504
23.6095
22.5519
19.9477
15.5822
9.09299
-0.180786
-13.2274
-31.3913
-56.3539
-89.8111
-131.686
-177.126
-212.653
-219.066
-190.647
-145.721
-105.342
-76.0908
-55.4896
-40.3624
-29.0706
-20.7818
-14.5624
-9.95334
-6.59195
-4.13879
-2.31838
-0.954103
0.0624359
0.811446
1.35864
1.7536
2.03061
2.21025
2.30454
2.31423
2.22587
2.00609
1.59506
0.882838
22.2519
21.0834
18.2252
13.4571
6.41587
-3.53502
-17.276
-35.8454
-60.2245
-90.7779
-126.016
-160.921
-186.377
-191.916
-173.734
-140.666
-106.544
-79.0154
-58.5005
-43.0818
-31.352
-22.543
-16.0202
-11.2293
-7.73504
-5.1947
-3.33089
-1.9411
-0.89393
-0.102166
0.497266
0.950227
1.28754
1.52618
1.67326
1.72687
1.67379
1.48499
1.12187
0.548991
57.1796
58.316
61.0264
65.3667
71.4047
79.2953
89.1742
100.978
114.242
127.8
139.455
145.862
143.826
132.574
114.916
95.6407
77.8868
62.5859
49.7674
39.293
30.9432
24.3693
19.2321
15.2857
12.283
9.97006
8.17105
6.78199
5.7224
4.91429
4.29282
3.81073
3.43177
3.124
2.85673
2.59791
2.31059
1.94893
1.45529
0.764138
56.1682
57.2862
59.9426
64.2176
70.2315
78.2257
88.4785
101.149
116.066
132.329
147.697
157.238
155.15
140.417
118.376
96.2133
76.9505
60.8466
47.676
37.1989
29.0763
22.6276
17.5989
13.9214
11.2279
9.14683
7.50678
6.2312
5.2495
4.48975
3.89721
3.43301
3.06632
2.76924
2.51551
2.27725
2.02121
1.70253
1.26169
0.635911
54.1798
55.2407
57.7572
61.8486
67.7246
75.7839
86.5827
100.759
118.858
140.778
163.716
180.495
178.661
155.845
125.345
98.2094
76.0287
58.2903
44.4221
33.9157
26.4043
20.1614
15.0908
11.6471
9.22451
7.35598
5.92458
4.86006
4.06426
3.46029
3.00149
2.65549
2.39538
2.19721
2.04242
1.91106
1.77739
1.59638
1.28588
0.693276
51.2716
52.2173
54.4608
58.1597
63.62
71.4229
82.4958
98.241
120.737
152.925
186.239
222.435
225.132
187.13
142.157
108.311
80.4563
59.2032
43.522
32.0771
19.6584
14.1202
10.9953
9.11612
7.22962
5.48585
4.14042
3.14891
2.39129
1.80095
1.34674
1.0079
0.760072
0.581416
0.464459
0.401041
0.381011
0.372419
0.290936
-0.0792419
47.5583
48.3152
50.1075
53.1074
57.6721
64.4926
74.7703
90.5675
115.468
156.759
224.694
300.854
318.439
217.387
146.651
106.438
71.8158
48.3703
32.8232
22.6286
15.4082
-2.46318
-0.36259
2.04874
2.03716
1.39448
0.873147
0.455692
0.0781396
-0.255387
-0.534432
-0.750099
-0.911519
-1.02125
-1.06731
-1.03465
-0.900759
-0.655521
-0.360996
-0.39077
43.233
43.7232
44.8685
46.8114
49.8662
54.6495
62.2987
74.9877
97.1225
148.074
236.159
418.106
564.632
202.852
155.172
106.191
59.8592
34.3173
19.6864
10.6873
3.38476
-6.44954
-2.49326
-2.11052
-3.0055
-3.56013
-3.81809
-4.02857
-4.23357
-4.40216
-4.52109
-4.60499
-4.63692
-4.61762
-4.52791
-4.33367
-3.97484
-3.34345
-2.25128
-0.416669
38.5682
38.7312
39.0696
39.6506
40.6347
42.3155
45.2146
50.3043
59.4363
96.9275
171.519
403.703
1863.53
206.027
88.128
30.7873
12.2326
3.55485
-5.72208
-13.5562
14.7877
11.3575
4.40124
0.519317
-1.33361
-2.43747
-3.23942
-3.82628
-4.23289
-4.50383
-4.67021
-4.76022
-4.78385
-4.71863
-4.5377
-4.18399
-3.55783
-2.4909
-0.748476
33.9194
33.7267
33.191
32.2813
30.9555
29.0827
26.3669
22.1216
14.5984
17.7382
6.05044
-132.51
-916.807
-974.411
-273.805
-82.036
-38.3428
-24.1246
-17.7094
-12.3636
-3.98987
-7.49631
-7.66746
-7.23236
-6.44657
-5.50269
-4.62494
-3.90269
-3.32241
-2.85052
-2.46177
-2.1272
-1.85365
-1.61534
-1.37738
-1.11123
-0.781581
-0.356664
0.143737
0.446079
29.6592
29.1275
27.7719
25.4737
22.0272
16.9917
9.55812
-1.77853
-19.9475
-40.5971
-104.037
-231.667
-420.99
-444.586
-275.7
-147.939
-85.5873
-53.907
-36.1037
-24.5088
-16.0823
-11.7523
-7.40181
-4.14882
-2.3925
-1.47213
-0.879577
-0.469837
-0.202641
-0.0352998
0.0726232
0.146683
0.19723
0.238522
0.286386
0.351451
0.438521
0.536705
0.583
0.405077
26.1395
25.3249
23.2994
19.8897
14.7987
7.45021
-3.12139
-18.4952
-41.3466
-76.4025
-125.392
-187.098
-242.78
-249.013
-199.577
-138.376
-93.4224
-65.0176
-46.4066
-33.3023
-24.0783
-18.23
-13.0807
-9.28997
-6.88477
-5.27796
-4.04161
-3.0393
-2.23558
-1.59443
-1.07631
-0.652071
-0.304641
-0.0216407
0.21042
0.395323
0.528583
0.589987
0.532195
0.286548
23.6434
22.6297
20.1395
15.9787
9.82497
1.08705
-11.1169
-27.9791
-50.9918
-81.6619
-119.893
-161.266
-193.604
-199.471
-173.769
-133.294
-97.1016
-70.894
-52.32
-38.5825
-28.2969
-20.7061
-14.76
-10.2473
-6.98251
-4.63491
-2.90468
-1.61131
-0.650717
0.0543781
0.568271
0.939772
1.20245
1.37815
1.48233
1.51873
1.47908
1.33945
1.05334
0.546397
22.3579
21.2387
18.5127
13.9804
7.31845
-2.0445
-14.8942
-32.1446
-54.6532
-82.7131
-114.935
-146.755
-169.938
-175.064
-158.747
-129.042
-98.3997
-73.6318
-55.073
-41.0278
-30.2829
-22.1602
-16.043
-11.4352
-8.03158
-5.5634
-3.76303
-2.42359
-1.41464
-0.652208
-0.0753765
0.36098
0.687461
0.922909
1.07735
1.15109
1.1342
1.0058
0.737574
0.317073
55.3572
56.3685
58.7625
62.5777
67.8589
74.7202
83.2494
93.3517
104.582
115.894
125.38
130.214
127.789
117.509
101.895
85.0316
69.5154
56.0849
44.7598
35.4474
27.9947
22.1194
17.494
13.8714
11.0701
8.9037
7.2221
5.92689
4.94441
4.19497
3.61898
3.17415
2.82851
2.5514
2.32174
2.11177
1.88922
1.61729
1.24779
0.710847
54.3885
55.3826
57.723
61.4685
66.7092
73.6316
82.4417
93.2295
105.79
119.295
131.803
139.085
136.605
123.405
104.194
85.0345
68.3403
54.287
42.7132
33.4677
26.323
20.6737
16.2034
12.7788
10.1832
8.16145
6.56797
5.33011
4.39354
3.67378
3.11825
2.68863
2.35595
2.09658
1.88748
1.70659
1.52923
1.32115
1.03319
0.588908
52.4885
53.4287
55.6329
59.1931
64.2756
71.1981
80.397
92.3589
107.474
125.583
144.303
157.54
154.893
134.844
108.758
85.6687
66.7029
51.4098
39.356
30.2769
24.1804
18.9602
14.1465
10.6744
8.29402
6.52539
5.17289
4.15663
3.38263
2.79777
2.35553
2.02406
1.78092
1.60369
1.47771
1.39208
1.33603
1.28151
1.16144
0.78771
49.7173
50.5494
52.4945
55.6769
60.3446
66.9678
76.2897
89.4263
108.042
134.524
164.668
194.943
195.999
162.256
123.703
94.5957
70.3973
51.9718
38.3183
28.5233
19.3476
16.7132
11.496
7.62689
5.00367
3.11545
1.78107
0.85931
0.197903
-0.285304
-0.633565
-0.872167
-1.02205
-1.10675
-1.12512
-1.06841
-0.923696
-0.683864
-0.376771
-0.186369
46.1885
46.8461
48.3725
50.9038
54.7332
60.4244
68.9494
81.9806
102.461
139.05
196.794
262.217
275.655
185.841
127.856
92.1358
61.2845
40.7904
27.2734
18.8067
15.4427
7.00142
5.2036
3.72633
2.03395
0.586588
-0.466946
-1.22496
-1.81534
-2.28611
-2.65714
-2.92888
-3.11957
-3.24468
-3.28477
-3.19842
-2.93223
-2.39929
-1.53052
-0.607053
42.0922
42.5049
43.4388
45.0049
47.4625
51.3133
57.4779
67.7394
85.7569
130.825
209.712
373.996
506.169
170.238
151.431
93.8479
49.4263
25.9553
12.8382
4.68706
-5.1556
-33.292
-29.6606
-26.9971
-25.6466
-24.3714
-23.1989
-22.2727
-21.5271
-20.8775
-20.2824
-19.7383
-19.204
-18.6377
-18.0074
-17.254
-16.2581
-14.7696
-12.2214
-7.17936
37.6879
37.8045
38.0054
38.3413
38.944
40.0411
42.044
45.7361
52.6685
85.8119
153.82
373.421
1781.97
270.92
71.0979
17.3495
-0.173097
-7.94354
-13.407
-17.7309
-0.671337
-4.13495
-9.1801
-11.6446
-12.6682
-13.2238
-13.6031
-13.8312
-13.918
-13.8959
-13.8068
-13.6225
-13.3524
-12.981
-12.4515
-11.6544
-10.3582
-8.11417
-4.19805
33.3079
33.101
32.5133
31.513
30.0595
28.029
25.1527
20.8348
13.6268
16.1603
6.15584
-117.749
-838.136
-868.972
-235.567
-73.2399
-39.1272
-28.1874
-22.6306
-17.3564
-11.7556
-21.1588
-17.7716
-14.0894
-11.8119
-10.2211
-9.01476
-8.12067
-7.46138
-6.96202
-6.57118
-6.24409
-5.96542
-5.70151
-5.41154
-5.04466
-4.52946
-3.75378
-2.59191
-1.10004
29.3053
28.7872
27.4596
25.216
21.8793
17.0707
10.0999
-0.295492
-16.5533
-35.0107
-90.5103
-202.185
-367.959
-385.673
-237.606
-129.076
-77.1323
-50.5961
-35.3387
-25.4684
-19.7542
-18.9407
-12.6564
-7.57021
-5.0036
-3.69157
-2.84653
-2.26687
-1.88838
-1.64558
-1.48276
-1.36645
-1.27738
-1.18813
-1.07822
-0.924746
-0.700927
-0.382453
0.010659
0.269954
26.0018
25.2246
23.293
20.0538
15.2571
8.41084
-1.29995
-15.1925
-35.4888
-66.1235
-108.454
-161.279
-208.439
-213.714
-172.268
-121.077
-83.4378
-59.4157
-43.405
-32.0593
-24.3071
-19.8859
-14.7752
-10.651
-7.99205
-6.20458
-4.83198
-3.73414
-2.87009
-2.19453
-1.6606
-1.2319
-0.887887
-0.603667
-0.36231
-0.150502
0.0391789
0.201886
0.300447
0.227296
23.6623
22.7023
20.3502
16.4378
10.6932
2.61338
-8.54563
-23.7744
-44.2923
-71.2987
-104.587
-140.234
-167.972
-173.062
-151.422
-117.388
-86.784
-64.3551
-48.2169
-36.1562
-27.1289
-20.5286
-15.2142
-10.9411
-7.7249
-5.36605
-3.60792
-2.28254
-1.29054
-0.556614
-0.0166036
0.379158
0.665853
0.869742
1.00858
1.09119
1.11592
1.06581
0.897794
0.511921
22.4603
21.4021
18.8358
14.5892
8.389
-0.25047
-11.9903
-27.5854
-47.7155
-72.5486
-100.793
-128.461
-148.529
-153.067
-139.323
-114.214
-88.1316
-66.8197
-50.6407
-38.2581
-28.7214
-21.4888
-15.9838
-11.7025
-8.43518
-6.01039
-4.21145
-2.85437
-1.82015
-1.03129
-0.430112
0.0277248
0.373941
0.630162
0.809127
0.915407
0.94347
0.876418
0.685725
0.33114
53.3659
54.237
56.2783
59.5097
63.9497
69.6639
76.6823
84.8676
93.7816
102.498
109.437
112.428
109.517
100.4
87.2148
73.152
60.2039
48.9108
39.271
31.2192
24.6559
19.4144
15.2961
12.0914
9.60199
7.6511
6.11694
4.92342
4.02158
3.32353
2.77969
2.35598
2.0289
1.75322
1.53748
1.35331
1.16996
0.963328
0.706997
0.392421
52.4432
53.2982
55.2859
58.4422
62.8221
68.5468
75.7345
84.3827
94.22
104.449
113.368
118.032
114.955
103.656
87.9169
72.3376
58.6714
47.0075
37.2279
29.2171
22.7834
17.729
13.7995
10.8004
8.49068
6.66113
5.19742
4.02932
3.2017
2.53989
2.02217
1.61621
1.29325
1.04614
0.850576
0.694914
0.561109
0.430941
0.289447
0.14376
50.6383
51.4431
53.2981
56.2658
60.4621
66.1075
73.4903
82.8953
94.4713
107.871
121.148
129.553
125.922
109.414
88.7769
70.7194
55.7853
43.4608
33.455
25.5323
19.2664
14.7385
11.0344
8.27549
6.1878
4.57393
3.34026
2.43232
1.67336
1.11861
0.702136
0.393374
0.173896
0.0343048
-0.0565351
-0.0949669
-0.0801125
-0.0149316
0.0804572
0.156948
48.0138
48.7198
50.3302
52.935
56.7133
62
69.3046
79.3521
93.1563
111.976
136.748
157.989
156.807
129.676
99.3581
76.4408
57.3537
42.6252
31.4153
23.0288
11.8205
9.08288
5.94675
3.51679
1.41762
-0.245279
-1.47039
-2.323
-2.95248
-3.41261
-3.73922
-3.9523
-4.07406
-4.12569
-4.10117
-3.9779
-3.73151
-3.30926
-2.62889
-1.51454
44.6862
45.2314
46.4593
48.4648
51.4625
55.8579
62.3196
71.9673
86.7133
115.894
157.031
202.691
207.706
137.179
95.282
68.3998
44.8251
28.966
18.2701
11.5501
9.7117
-2.23062
-3.25292
-4.49248
-5.96293
-7.16771
-8.09614
-8.62385
-8.95892
-9.19303
-9.34984
-9.44304
-9.45544
-9.38433
-9.24944
-8.97377
-8.47945
-7.61385
-6.12099
-3.60399
40.8377
41.161
41.8568
42.9989
44.7763
47.5384
51.9097
59.0704
71.3711
106.256
166.567
289.943
385.038
102.52
109.707
55.2793
19.8584
2.11389
-7.54096
-12.7791
-11.8157
-26.115
-27.6066
-31.5512
-32.6653
-32.3176
-31.5204
-30.8
-30.0881
-29.3475
-28.5897
-27.8098
-27.0417
-26.268
-25.4092
-24.3982
-23.0872
-21.1268
-17.7006
-10.8043
36.7182
36.7727
36.8189
36.8802
37.0435
37.4489
38.3371
40.1563
43.7855
68.756
120.734
301.092
1589.02
253.498
-17.1767
-59.413
-67.9977
-69.2767
-67.4656
-62.493
-35.867
-35.1341
-37.1187
-37.1869
-36.2405
-35.1654
-34.182
-33.2283
-32.2754
-31.33
-30.4186
-29.5061
-28.5461
-27.5474
-26.414
-24.9892
-22.8986
-19.2662
-11.7903
32.6339
32.3995
31.7505
30.6456
29.0403
26.8091
23.6914
19.156
12.0401
12.8563
3.60365
-93.019
-666.106
-660.577
-189.199
-75.619
-50.8441
-41.3508
-35.6585
-30.1556
-27.1839
-30.2784
-26.7373
-22.9997
-20.6248
-18.8702
-17.4931
-16.4195
-15.5593
-14.8439
-14.2291
-13.6871
-13.2063
-12.7103
-12.1882
-11.5863
-10.8028
-9.65227
-7.79151
-4.54232
28.9019
28.3977
27.0973
24.9099
21.6896
17.1197
10.6378
1.27072
-12.6962
-28.547
-73.1486
-158.835
-282.735
-296.218
-187.189
-106.917
-67.6431
-46.6011
-33.9636
-25.7109
-23.2056
-18.7625
-15.0507
-11.9059
-9.93013
-8.60434
-7.59593
-6.81039
-6.20289
-5.7273
-5.34415
-5.02514
-4.75544
-4.50165
-4.23998
-3.94123
-3.56158
-3.03978
-2.29515
-1.23838
25.8316
25.0958
23.2648
20.2117
15.7374
9.44304
0.683847
-11.5452
-28.8761
-54.1799
-88.1272
-128.997
-164.253
-168.853
-138.674
-100.225
-71.1118
-51.875
-38.5406
-28.8028
-21.9489
-18.1628
-14.6189
-11.6063
-9.34679
-7.64663
-6.30244
-5.22032
-4.3526
-3.65543
-3.09008
-2.62547
-2.24243
-1.91541
-1.62644
-1.35946
-1.10222
-0.845201
-0.589043
-0.339887
23.6608
22.7603
20.5601
16.9215
11.6297
4.28109
-5.7101
-19.0952
-36.7445
-59.4264
-86.727
-115.278
-137.196
-141.277
-124.857
-98.8931
-74.7957
-56.537
-42.9972
-32.6433
-24.7442
-18.9507
-14.4875
-10.9357
-8.19503
-6.12274
-4.54624
-3.33714
-2.40953
-1.69977
-1.15629
-0.739488
-0.420162
-0.175597
0.00987067
0.145107
0.229873
0.254242
0.197731
0.0415433
22.5479
21.5576
19.168
15.237
9.54871
1.7154
-8.7817
-22.5094
-39.9256
-61.0224
-84.5926
-107.312
-123.604
-127.386
-116.762
-97.0655
-76.2161
-58.7412
-45.1289
-34.4929
-26.1672
-19.7907
-14.9615
-11.2481
-8.39907
-6.23722
-4.59687
-3.34064
-2.37202
-1.62381
-1.04563
-0.598266
-0.253224
0.00885539
0.200136
0.325675
0.380805
0.352075
0.225194
0.0145482
51.3508
52.075
53.7557
56.3921
59.976
64.5258
70.0149
76.2665
82.8541
88.9795
93.3983
94.5621
91.2183
83.3617
72.6638
61.415
51.0285
41.8723
33.9313
27.1741
21.5608
17.0148
13.4368
10.6998
8.58766
6.91556
5.58698
4.54883
3.75333
3.13934
2.66267
2.29205
2.00314
1.77191
1.58471
1.42078
1.2556
1.06441
0.81806
0.48606
50.475
51.1836
52.8111
55.3675
58.8718
63.3826
68.9311
75.4253
82.5344
89.5093
94.9646
96.8078
93.0604
83.7356
71.5961
59.6635
49.0936
39.8978
31.9982
25.3536
19.8701
15.4449
12.0275
9.53353
7.64808
6.15303
4.96237
4.02605
3.30525
2.73576
2.2837
1.92481
1.64024
1.41484
1.23374
1.08498
0.951929
0.81328
0.639638
0.391699
48.7661
49.4264
50.9263
53.2917
56.5893
60.944
66.4969
73.3344
81.3676
90.074
97.9079
101.499
96.5421
83.3205
68.1511
55.2171
44.4279
35.1179
27.1977
20.6216
15.2093
11.0039
8.41673
6.61928
5.07689
3.80712
2.8561
2.16878
1.65486
1.27694
1.00082
0.803193
0.667838
0.581053
0.531135
0.518026
0.540128
0.585383
0.616207
0.514177
46.2904
46.8573
48.1294
50.1501
53.029
56.9678
62.2436
69.1939
78.1862
89.4795
101.138
108.69
101.302
80.2884
61.3532
48.1748
37.5516
28.6564
21.2763
14.944
8.4099
2.18775
2.35638
2.83547
2.22379
1.31423
0.54476
-0.0507886
-0.533168
-0.920765
-1.21946
-1.43624
-1.57956
-1.65906
-1.67114
-1.59893
-1.42317
-1.11656
-0.667477
-0.141359
43.1649
43.5879
44.5107
45.9884
48.145
51.2313
55.6077
61.8101
70.5734
90.7505
111.953
131.878
124.231
81.7487
56.7188
43.0425
28.9627
18.5577
11.2271
5.82026
0.326532
-13.8883
-11.044
-7.99124
-6.66459
-6.00271
-5.5479
-5.20322
-4.97353
-4.83358
-4.74808
-4.68871
-4.63605
-4.57351
-4.46454
-4.25883
-3.88937
-3.25018
-2.23089
-0.87615
39.5656
39.7927
40.2441
40.9593
42.0497
43.7108
46.2589
50.2211
56.4534
78.4833
105.772
148.77
165.626
28.1101
19.8103
3.46248
-5.13718
-9.246
-12.559
-15.2627
-21.9091
-14.671
-15.6862
-17.3882
-17.798
-17.5973
-17.2386
-16.8746
-16.5058
-16.1286
-15.7483
-15.3516
-14.9603
-14.5642
-14.0983
-13.4979
-12.6486
-11.3136
-9.04919
-5.12
35.7285
35.7197
35.6065
35.3906
35.1119
34.819
34.5677
34.427
34.4512
48.6379
60.1889
130.771
174.281
-680.665
-124.15
-86.9418
-64.0825
-59.9749
-56.8445
-54.3499
-67.5382
-40.8112
-38.4953
-36.2269
-34.1933
-32.2419
-30.5268
-29.066
-27.7829
-26.6285
-25.5795
-24.62
-23.7282
-22.8443
-21.9343
-20.9318
-19.7175
-18.0048
-15.1633
-9.5756
31.9371
31.6762
30.9641
29.7551
28.0012
25.5692
22.1925
17.3687
10.1239
8.3824
-13.857
-82.0668
-306.47
-258.968
-105.588
-56.1907
-35.3509
-26.7054
-21.984
-17.8329
-9.94596
5.4115
1.89684
-2.0002
-3.63713
-4.37997
-4.84255
-5.14958
-5.33402
-5.43074
-5.47062
-5.47883
-5.4497
-5.35788
-5.18846
-4.91747
-4.47804
-3.74703
-2.56982
-1.00631
28.4849
27.9881
26.716
24.5892
21.4917
17.1639
11.1513
2.67429
-9.72486
-28.987
-53.3406
-108.126
-178.108
-188.698
-128.785
-80.2819
-53.5194
-37.7023
-27.7104
-20.3571
-10.5539
-1.80949
-2.87824
-4.2879
-4.2327
-3.70135
-3.19338
-2.76934
-2.41531
-2.12593
-1.89514
-1.71078
-1.56256
-1.43467
-1.29504
-1.12132
-0.889124
-0.568239
-0.175449
0.0825447
25.6425
24.9481
23.2197
20.3591
16.2168
10.4863
2.68882
-7.88503
-22.2524
-41.7236
-66.8686
-95.1008
-118.266
-122.104
-103.817
-78.4843
-57.7455
-43.0771
-32.3795
-23.9484
-16.7917
-11.8905
-9.12399
-7.11057
-5.29844
-3.79717
-2.65653
-1.80324
-1.15854
-0.670138
-0.301045
-0.0218244
0.187403
0.3479
0.481534
0.599078
0.703547
0.78282
0.779559
0.512503
23.6389
22.8003
20.756
17.4001
12.5746
5.97529
-2.82448
-14.3338
-29.0549
-47.2347
-68.2019
-89.441
-105.219
-108.603
-97.9172
-79.8562
-62.231
-48.0967
-37.1484
-28.4268
-21.3732
-15.8742
-11.6429
-8.5023
-6.1233
-4.2929
-2.8913
-1.82117
-1.00313
-0.378382
0.0960745
0.453373
0.718654
0.911618
1.04609
1.12857
1.15392
1.09997
0.915055
0.490383
22.6132
21.6947
19.4881
15.8833
10.7227
3.71601
-5.51181
-17.3334
-31.9759
-49.2332
-67.9756
-85.6176
-98.055
-101.156
-93.7688
-79.4874
-63.7983
-50.1098
-39.0393
-30.1194
-22.9126
-17.1956
-12.7769
-9.42509
-6.8569
-4.85795
-3.30163
-2.09755
-1.17012
-0.458098
0.0855603
0.49678
0.802889
1.0232
1.16941
1.24596
1.24509
1.14505
0.903936
0.451141
49.452
50.0335
51.3712
53.4495
56.2324
59.7002
63.7812
68.2771
72.793
76.6743
79.004
78.7677
75.2795
68.7326
60.329
51.5862
43.4426
36.1622
29.7519
24.2186
19.5707
15.7845
12.7949
10.4773
8.64742
7.16537
5.96465
5.00627
4.25063
3.65423
3.18105
2.80324
2.49799
2.24464
2.02464
1.81915
1.60422
1.35129
1.02603
0.589314
48.6206
49.187
50.4716
52.4703
55.1563
58.5453
62.5975
67.1607
71.8839
76.1143
78.8226
78.7202
74.8362
67.4749
58.4098
49.4828
41.4354
34.2883
28.0197
22.6616
18.2122
14.644
11.9118
9.83812
8.18932
6.83828
5.73827
4.85223
4.13986
3.56281
3.0926
2.70783
2.39078
2.12522
1.89616
1.68912
1.48393
1.25297
0.957138
0.54722
47.0021
47.5225
48.6826
50.4893
52.9564
56.1315
60.0414
64.6287
69.6506
74.5031
77.957
78.0947
73.1197
63.7336
53.4059
44.4934
36.898
30.0785
24.0664
18.9871
14.8549
11.737
9.68401
8.07589
6.60729
5.34328
4.34769
3.58745
3.00164
2.54688
2.19495
1.92405
1.71701
1.55964
1.44006
1.34919
1.27335
1.18622
1.03263
0.692511
44.666
45.101
46.0497
47.5277
49.5862
52.3123
55.8073
60.1369
65.2446
70.7202
75.2118
75.7996
68.8791