/*--------------------------------*- C++ -*----------------------------------*\
| =========                 |                                                 |
| \\      /  F ield         | OpenFOAM: The Open Source CFD Toolbox           |
|  \\    /   O peration     | Version:  2306                                  |
|   \\  /    A nd           | Website:  www.openfoam.com                      |
|    \\/     M anipulation  |                                                 |
\*---------------------------------------------------------------------------*/
FoamFile
{
    version     2.0;
    format      ascii;
    arch        "LSB;label=32;scalar=64";
    class       surfaceScalarField;
    location    "0.95";
    object      phi;
}
// * * * * * * * * * * * * * * * * * * * * * * * * * * * * * * * * * * * * * //

dimensions      [0 3 -1 0 0 0 0];

oriented        oriented;

internalField   nonuniform List<scalar> 
338621
(
24.9949
0.00235074
0.0014749
24.987
0.00486785
0.00304045
24.9746
0.00768025
0.00481908
24.9571
0.0106714
0.00694397
24.9336
0.0139628
0.00971582
24.9005
0.0199682
0.0132888
24.8535
0.0294701
0.0177571
24.7902
0.0400714
0.0234092
24.7281
0.0318427
0.030451
24.6849
0.00457811
0.0387678
24.6568
-0.019935
0.0481906
24.5832
0.0153676
0.0582653
24.6121
-0.0975898
0.0686803
24.7428
-0.209024
0.0784025
24.7846
-0.128542
0.0867175
24.8171
-0.125546
0.093185
24.8463
-0.126864
0.09786
24.8702
-0.12504
0.101306
24.8905
-0.123936
0.103738
24.918
-0.13294
0.105559
24.9486
-0.137299
0.106781
24.9719
-0.131115
0.107823
24.9898
-0.126664
0.108827
25.0043
-0.124226
0.109709
25.0165
-0.122752
0.110632
25.0264
-0.121583
0.111605
25.0349
-0.121017
0.112546
25.042
-0.12047
0.113431
25.0477
-0.120073
0.114333
25.0526
-0.120059
0.115197
25.0568
-0.120159
0.11598
25.0605
-0.120368
0.116628
25.0639
-0.120596
0.117228
25.067
-0.120831
0.117737
25.0699
-0.121074
0.118096
25.0732
-0.121617
0.118323
25.0768
-0.121949
0.118367
25.0808
-0.122257
0.118304
25.0853
-0.122586
0.118094
-0.123212
0.117493
24.9948
0.00467798
0.00144439
24.9869
0.00987349
0.00293977
24.9741
0.0158948
0.00468483
24.9565
0.0216094
0.00677539
24.9329
0.0281634
0.00950621
24.9031
0.037034
0.0129527
24.8671
0.0482145
0.0174491
24.821
0.0631261
0.0231656
24.7563
0.0664112
0.0303544
24.6816
0.0403444
0.0390322
24.6389
-0.0263504
0.0491695
24.6261
-0.031734
0.0599459
24.6651
-0.20858
0.0719075
24.7493
-0.376128
0.0828332
24.8296
-0.300645
0.0918036
24.898
-0.292376
0.0985524
24.9505
-0.282606
0.103348
24.9932
-0.274412
0.106782
25.039
-0.27883
0.109239
25.0738
-0.278623
0.110931
25.0948
-0.270403
0.11214
25.1098
-0.259163
0.113077
25.12
-0.250922
0.114045
25.128
-0.247094
0.114945
25.1338
-0.244422
0.115858
25.1382
-0.242703
0.116763
25.1408
-0.241335
0.117709
25.1427
-0.241018
0.118626
25.1442
-0.241089
0.119531
25.1449
-0.241168
0.120398
25.1452
-0.241683
0.121198
25.145
-0.242089
0.121912
25.145
-0.243096
0.122549
25.145
-0.243892
0.12308
25.1451
-0.244719
0.123481
25.1456
-0.245825
0.123784
25.1464
-0.246701
0.123886
25.1479
-0.247585
0.12389
25.1503
-0.248703
0.123699
-0.249203
0.123166
24.9952
0.00666916
0.00136912
24.9874
0.0149759
0.00278042
24.9752
0.0237153
0.004396
24.957
0.0334708
0.00644765
24.9324
0.0438518
0.00906414
24.9008
0.0562568
0.0124354
24.8606
0.0716892
0.0169412
24.8111
0.0900177
0.022748
24.7419
0.105419
0.0303006
24.6439
0.098576
0.0398568
24.5676
0.00511614
0.05145
-0.00637727
0.00532527
-0.00547222
24.6649
-0.0389415
0.0649963
-0.058676
-0.0381652
-0.0582672
24.5577
-0.0111522
0.0778304
-0.0953693
0.0212027
-0.0941782
24.7306
-0.181862
0.0902336
-0.123438
-0.212062
-0.122067
24.824
-0.128081
0.0994657
-0.1205
-0.126277
-0.118552
24.8847
-0.116744
0.106005
-0.114656
-0.114644
-0.112958
24.9388
-0.112605
0.110487
-0.112707
-0.111142
-0.110576
25.005
-0.11492
0.113616
-0.113756
-0.113297
-0.112085
25.0486
-0.111121
0.115811
-0.109596
-0.109493
-0.107993
25.0751
-0.107042
0.117171
-0.105851
-0.105359
-0.104103
25.0939
-0.407047
0.117857
25.1085
-0.392156
0.118408
25.1178
-0.379451
0.119264
25.1247
-0.37431
0.120242
25.1301
-0.370997
0.121214
25.1337
-0.368471
0.122125
25.1358
-0.366413
0.123003
25.1371
-0.366205
0.123867
25.1372
-0.365828
0.124719
25.1371
-0.366626
0.125557
25.1363
-0.367227
0.126362
25.1354
-0.368311
0.127122
25.1341
-0.369576
0.12777
25.1329
-0.37119
0.128426
25.1317
-0.372366
0.128898
25.1307
-0.374082
0.129285
25.1303
-0.375818
0.129457
25.1306
-0.377339
0.12949
25.1313
-0.37873
0.129301
-0.379839
0.128788
24.9955
0.008936
0.001253
24.9886
0.0193577
0.00254208
24.9767
0.0317013
0.00399685
24.9597
0.0446752
0.00592083
24.9349
0.0603999
0.00834446
24.9001
0.0795027
0.0115602
24.8543
0.101754
0.0159075
24.7958
0.126906
0.0216838
24.7291
0.142832
0.0294623
6.14105
0.0366018
0.0398041
0.0538545
0.0379155
0.0539663
6.16321
6.14014
6.16124
6.12351
0.0168793
0.00577958
-6.11044
6.09836
-0.0343955
0.00752053
-6.10235
6.12397
-0.0421294
0.00932879
-6.11632
6.14339
-0.220123
0.0111714
-6.16218
6.17651
-0.154886
0.0124649
-6.18974
6.2004
-0.140647
0.0132458
-6.21165
6.22591
-0.140697
0.0138319
-6.23785
6.24509
-0.136421
0.0142664
-6.25097
6.2563
-0.131015
0.0145631
-6.26086
6.26509
-0.126055
0.014785
25.106
-0.137333
0.120859
-0.138298
-0.13547
-0.136742
-6.26895
-6.27376
-6.26948
-6.27395
25.1127
-0.519717
0.120823
25.1166
-0.505112
0.121792
25.1201
-0.501006
0.123151
25.1213
-0.496813
0.12462
25.1206
-0.493766
0.126052
25.1192
-0.492413
0.127416
25.1162
-0.491946
0.128706
25.112
-0.491581
0.129917
25.1068
-0.49245
0.131044
25.101
-0.493453
0.132078
25.0944
-0.494728
0.133008
25.0872
-0.496131
0.133776
25.0798
-0.498372
0.13452
25.0726
-0.50013
0.135015
25.0653
-0.502148
0.135365
25.0583
-0.504333
0.135429
25.052
-0.506162
0.135218
25.0471
-0.508632
0.134733
-0.509682
0.133897
24.9972
0.0095192
0.00109658
24.9912
0.0232165
0.00222088
24.9813
0.0381566
0.00348324
24.9657
0.0551601
0.00517449
24.9426
0.0762177
0.00731075
24.9089
0.103065
0.0101642
24.8587
0.138024
0.014025
24.7842
0.182176
0.0193352
6.17087
0.231899
0.0265372
6.16359
6.17059
6.16357
6.15477
0.0487593
0.00394429
6.12939
0.0054474
-6.15731
0.0200995
0.011789
0.0116033
0.0202351
-0.0412504
-6.07663
6.04251
0.0072739
-0.0021655
0.00414046
0.00373104
-0.00195173
0.0230659
-6.04219
6.0607
0.00936867
0.0292088
-0.0400831
-0.0403504
-0.0190029
0.0422874
-6.11343
6.13912
0.0115602
-0.051612
-0.0663871
-0.104374
-0.0520115
0.237087
-6.17184
6.18384
0.0122872
-0.0495396
-0.0535581
-0.0529113
-0.0499062
0.181612
-6.19538
6.20859
0.0126226
-0.0494035
-0.0486569
-0.0486196
-0.0493999
0.170253
-6.22194
6.23356
0.0130497
-0.0473923
-0.0472455
-0.0472912
-0.0473739
0.164644
-6.24307
6.25026
0.0134878
-0.0446436
-0.044482
-0.0444733
-0.044694
0.157607
-6.25668
6.26136
0.0139051
-0.0420627
-0.04229
-0.0421688
-0.0422362
0.150155
-6.26562
6.26794
0.014347
-0.0398056
-0.0404149
-0.0401256
-0.040147
0.143816
-6.27118
6.27366
-0.155261
0.0154389
25.0651
-0.598412
0.105638
-6.27487
-6.26867
-6.27566
-6.27286
25.044
-0.590466
0.106444
25.0194
-0.583205
0.106773
24.9935
-0.577932
0.107023
24.9678
-0.57561
0.10751
24.9422
-0.575003
0.10826
24.9164
-0.575391
0.109211
24.8912
-0.576686
0.110286
24.8659
-0.578503
0.111382
24.8409
-0.580929
0.112409
24.8167
-0.583752
0.113283
24.7933
-0.586679
0.113905
24.7705
-0.589834
0.114333
24.749
-0.593082
0.11441
24.7288
-0.596121
0.114143
24.7102
-0.59913
0.113463
24.6937
-0.601995
0.11233
24.6794
-0.605154
0.110772
-0.609286
0.108862
24.9998
0.00811349
0.000903829
24.9964
0.0248238
0.00182748
24.9888
0.0429517
0.0028687
24.9769
0.0628731
0.00419295
24.9592
0.0880824
0.0059313
24.9319
0.122169
0.00820329
24.8885
0.170213
0.0112188
24.8158
0.239525
0.0153828
6.17039
0.346261
0.0208914
6.16998
6.17035
6.16981
-0.0647855
6.14473
0.0873558
0.00308155
-0.0195718
-1.52751
1.52236
0.0241532
0.000567192
-0.0194469
-1.50419
1.4921
0.0308625
0.000673776
-1.46868
0.0520345
1.47863
-0.0630136
0.00101866
-1.53048
0.0840917
1.53937
-0.0940715
0.00109171
-1.53801
0.0596474
-0.0630777
0.00144806
1.53999
-1.54883
0.0568314
-0.0608626
0.00163981
1.55122
0.0541226
-1.55655
1.55789
-0.0574947
0.00202721
0.0501712
-1.56057
1.56105
-0.0531251
0.00247637
0.0475529
-1.56152
1.56155
-0.0504776
0.00289662
0.045301
-1.56072
1.56025
-0.0480921
0.00326333
-1.55331
0.170449
6.15674
-0.169889
0.0230222
-1.53564
-1.55438
-1.537
23.8979
-0.665687
0.045499
-6.10144
-5.79514
-6.13584
-5.84375
23.9076
-0.651399
0.0512613
23.9142
-0.644193
0.0543778
23.9195
-0.639277
0.0560016
23.9237
-0.636708
0.0569497
23.9271
-0.635835
0.0573864
23.9305
-0.636162
0.0573503
23.9343
-0.637311
0.0568749
23.9388
-0.639044
0.0559968
23.9443
-0.641127
0.0547615
23.9506
-0.643348
0.0532237
23.9582
-0.64567
0.0514223
23.9667
-0.647843
0.0494837
23.976
-0.649734
0.0474086
23.9861
-0.651453
0.0452413
23.9967
-0.65272
0.0429882
24.0076
-0.65356
0.0406104
24.0184
-0.653946
0.0380426
-0.653433
0.0353069
25.003
0.00421445
0.000688618
25.0036
0.0229215
0.00137571
25.0007
0.0437022
0.00215398
24.9949
0.0655381
0.00307149
24.9861
0.0926765
0.00425175
24.9725
0.130021
0.00578242
24.9527
0.182349
0.0076737
24.9214
0.260743
0.0100723
6.21303
0.387001
0.0128335
6.22113
6.21274
6.22091
-0.10577
6.1976
0.119396
0.00179396
-0.0393079
-1.542
1.53586
0.045158
0.000288274
-0.0822838
-1.5066
1.48823
0.1005
0.000152415
0.00434321
-0.07468
0.0748571
-0.00454447
2.41267e-05
-0.0214118
0.000449641
0.020924
2.61506e-06
3.55602e-05
-0.219739
0.0138719
-0.024577
-0.000421886
0.230866
-1.18349
0.0619615
-0.0787719
-0.00639151
1.2067
0.059301
-1.25827
1.27017
-0.0648195
-0.00637697
0.0596122
-1.30496
1.31601
-0.0647172
-0.00594267
0.0575257
-1.34407
1.35254
-0.0603439
-0.00564317
0.0558699
-1.37393
1.38127
-0.0580188
-0.00518881
-1.41422
0.206219
5.83535
-0.216742
-0.0185961
-1.49922
-1.39846
-1.49433
23.956
-0.630073
-0.0830821
-5.87238
-6.16162
-5.71737
-6.15715
23.9921
-0.604213
-0.0832673
24.0253
-0.594065
-0.0833244
24.0581
-0.588336
-0.0837865
24.0901
-0.58444
-0.0843101
24.1215
-0.582354
-0.0847881
24.1523
-0.58172
-0.0852988
24.1827
-0.581953
-0.0857571
24.2126
-0.582758
-0.0861691
24.2418
-0.583834
-0.0865025
24.2702
-0.584958
-0.0867601
24.2974
-0.58607
-0.08686
24.3234
-0.586977
-0.0868815
24.348
-0.58758
-0.0867302
24.3708
-0.587758
-0.0864866
24.392
-0.587673
-0.0862047
24.4114
-0.586994
-0.0859479
24.4288
-0.585458
-0.0858899
-0.58222
-0.0863761
25.0048
-0.000720393
0.000456899
25.0101
0.0167226
0.000914961
25.015
0.0373618
0.00138747
25.019
0.0596276
0.00191861
25.0209
0.0882457
0.00249161
25.026
0.121747
0.0031678
25.0381
0.166396
0.00380264
25.0641
0.230511
0.00421001
6.27434
0.331455
0.00401828
6.28214
6.27467
6.28449
-0.11146
6.28211
0.103289
0.000399084
-0.0445743
-1.57797
1.57969
0.0428538
5.8008e-06
-0.0840066
-1.59838
1.61346
-0.000266846
0.0691933
-0.0255078
-1.71321
1.7514
-0.00135409
0.0555693
-0.0206297
-0.0255957
-0.0206667
0.0971763
-1.71132
1.68206
-0.000380051
-0.0675243
0.0988332
-1.6089
-0.000877808
1.59854
-0.087591
0.0752767
-1.58434
-0.0012177
1.58146
-0.0711769
0.0545597
-1.57685
1.57591
-0.0520912
-0.00152845
0.0554814
-1.57414
1.57234
-0.0519182
-0.00175892
0.0499013
-1.57197
1.57133
-0.04736
-0.00190633
0.0463334
-1.57045
1.56997
-0.0438653
-0.00199041
-1.56777
0.172936
6.26467
-0.152555
-0.0152573
-1.56727
-1.56743
-1.56732
25.0729
-0.518214
-0.106772
-6.26901
-6.26884
-6.2707
-6.26942
25.0754
-0.500012
-0.106635
25.0735
-0.486279
-0.105963
25.0704
-0.479626
-0.105545
25.0672
-0.475816
-0.105492
25.0644
-0.473751
-0.105729
25.0617
-0.472753
-0.106338
25.0592
-0.472167
-0.107225
25.0572
-0.472444
-0.108369
25.0556
-0.472559
-0.109693
25.0543
-0.472454
-0.111177
25.0535
-0.472679
-0.112599
25.0531
-0.472472
-0.114074
25.0526
-0.471716
-0.115426
25.0528
-0.471215
-0.116737
25.0533
-0.470174
-0.118004
25.0543
-0.46868
-0.119242
25.0558
-0.466461
-0.120519
-0.463746
-0.121759
25.0058
-0.00574833
0.000218565
25.0142
0.0077926
0.000453373
25.0273
0.0236584
0.000648133
25.0386
0.047436
0.000790736
25.054
0.0719595
0.00083748
25.0776
0.0974473
0.00069069
25.1155
0.128147
0.000189859
25.1789
0.168197
-0.00111271
6.32059
0.230349
-0.00369944
6.31874
6.32497
6.3193
-0.0885082
6.33671
0.0731546
-0.000776665
-0.0331826
6.41331
0.0877199
-0.00170512
-0.0343751
-0.033356
-0.0340154
-6.36441
-0.0333121
6.51711
0.0755778
-0.00347159
-0.0260311
-0.0332271
-0.0260054
-6.47062
-0.00713763
-6.54745
6.51323
-0.00601325
-0.00591354
0.0152183
-0.00740588
0.0455128
0.0450646
-6.53453
6.51255
-0.12269
-0.00809014
0.0389417
0.0356434
0.033153
0.0541925
-6.44799
6.4104
-0.175582
-0.0099707
0.0548229
0.0565262
0.057624
0.0553251
-6.37056
6.33857
-0.172976
-0.0115274
0.0540273
0.0543907
0.0527451
0.0454354
-6.32069
6.30971
-0.154231
-0.0127386
0.0444792
0.0443493
0.0436722
0.0432989
-6.3013
6.29566
-0.152705
-0.013538
0.0430445
0.0428974
0.0426398
0.0401907
-6.29144
6.28627
-0.139417
-0.0139791
0.0396705
0.0396873
0.0390262
0.0371875
-6.28219
6.27689
-0.127015
-0.0142092
0.0367059
0.0366322
0.0360022
0.136904
-6.27544
6.27364
-0.120619
-0.014483
25.075
-0.391049
-0.118194
-6.27115
-6.2711
-6.27137
-6.27034
25.0675
-0.375
-0.11748
25.0636
-0.365362
-0.117045
25.0605
-0.359566
-0.116938
25.058
-0.356267
-0.117048
25.0558
-0.354262
-0.11728
25.054
-0.353335
-0.117604
25.0527
-0.352935
-0.117999
25.0516
-0.352853
-0.118433
25.0508
-0.352878
-0.118877
25.0503
-0.352644
-0.119337
25.0501
-0.352794
-0.119733
25.0499
-0.352241
-0.120046
25.0506
-0.352051
-0.120354
25.0514
-0.351299
-0.120647
25.0522
-0.350112
-0.120934
25.054
-0.349131
-0.121279
25.057
-0.347703
-0.121756
-0.346275
-0.122415
25.0064
-0.0107705
6.59833e-05
25.0163
-0.00221565
9.62314e-05
25.0252
0.0146426
3.38938e-05
25.0418
0.0308752
-0.000129702
25.0685
0.045677
-0.000536293
25.1021
0.065068
-0.00131686
25.1498
0.0830459
-0.00269554
25.2164
0.106573
-0.00512998
25.3255
0.130358
-0.00926253
25.4307
0.144025
-0.0159244
-0.0609285
-0.0566107
-0.0586783
-0.0572678
25.5787
0.131356
-0.0259327
-0.0604556
-0.0638759
-0.061872
-0.0673663
25.7123
0.0531869
-0.040059
-0.0417025
-0.0277886
-0.0455397
-0.031627
25.5894
-0.158182
-0.0568988
0.0216122
0.124449
0.020138
0.172039
25.4965
-0.239262
-0.0748204
0.0833262
0.116704
0.0991679
0.10802
25.4279
-0.248875
-0.0901239
0.0823049
0.147511
0.0314176
0.146452
25.3425
-0.351463
-0.101583
0.13406
0.136826
0.132893
0.134471
25.2593
-0.319506
-0.108801
0.127273
0.130681
0.125304
0.128088
25.1944
-0.327647
-0.113064
0.129694
0.126428
0.126657
0.122744
25.1526
-0.304748
-0.1154
0.119049
0.115703
0.115739
0.111487
25.1299
-0.284202
-0.116578
0.107963
0.107608
0.103265
0.104627
25.1114
-0.268588
-0.11701
0.102966
0.102204
0.100204
0.098732
25.095
-0.257891
-0.116774
25.085
-0.248409
-0.116536
25.0782
-0.242121
-0.116517
25.0731
-0.237669
-0.116727
25.0687
-0.234938
-0.116994
25.0655
-0.2337
-0.117377
25.0624
-0.232344
-0.11785
25.06
-0.232125
-0.118389
25.0577
-0.23163
-0.118969
25.0561
-0.231719
-0.119558
25.0552
-0.231562
-0.120138
25.0541
-0.231057
-0.120693
25.0539
-0.230917
-0.121128
25.0536
-0.230137
-0.121587
25.0537
-0.229456
-0.121984
25.0548
-0.228826
-0.122373
25.0565
-0.228008
-0.122798
25.0583
-0.226223
-0.123312
-0.2247
-0.123944
25.0067
-0.0155207
-7.54411e-05
25.0098
-0.00524711
-0.000172177
25.0176
0.00722402
-0.000405271
25.0372
0.0119208
-0.000766974
25.0628
0.0214322
-0.00146598
25.0923
0.0380337
-0.00266534
25.1405
0.0392659
-0.00457723
25.2021
0.0524159
-0.00758366
25.2816
0.0629385
-0.0122989
25.3777
0.0670201
-0.0192544
25.4846
0.0533788
-0.0289996
25.5643
0.015567
-0.0420147
25.5411
-0.0776982
-0.0572346
25.5262
-0.151437
-0.0727817
25.4033
-0.0396192
-0.0863765
25.3212
-0.172381
-0.0970149
25.2718
-0.166228
-0.10403
25.2113
-0.158715
-0.108541
25.1674
-0.149829
-0.111126
25.1364
-0.14068
-0.112576
25.1137
-0.132618
-0.113341
25.0961
-0.126663
-0.113584
25.0833
-0.121952
-0.113725
25.0738
-0.118805
-0.113865
25.0669
-0.116579
-0.114126
25.0616
-0.115342
-0.114377
25.0571
-0.114389
-0.114738
25.0539
-0.114024
-0.11517
25.0515
-0.114108
-0.11557
25.0496
-0.113799
-0.115981
25.0483
-0.114031
-0.116353
25.0471
-0.113759
-0.116674
25.0469
-0.113926
-0.116889
25.0466
-0.113579
-0.117043
25.0472
-0.113545
-0.11715
25.0479
-0.112969
-0.117195
25.0491
-0.11281
-0.117214
25.0507
-0.112335
-0.117263
25.0535
-0.111606
-0.117413
-0.111793
-0.117747
24.987
-0.00013585
24.9819
-0.000263679
24.9896
-0.000586593
25.0024
-0.000983534
25.0255
-0.00184282
25.0666
-0.00316872
25.1108
-0.00525253
25.1715
-0.00848516
25.2476
-0.0133939
25.3347
-0.0203266
25.4176
-0.0296867
25.4749
-0.0416936
25.4526
-0.0554242
25.3705
-0.0694028
25.4127
-0.0818796
25.3323
-0.0921355
25.265
-0.099098
25.2096
-0.103467
25.1657
-0.106071
25.1326
-0.107575
25.1083
-0.108443
25.0905
-0.108889
25.0777
-0.109153
25.0682
-0.10935
25.0613
-0.109687
25.056
-0.110057
25.0522
-0.110515
25.0492
-0.111087
25.0467
-0.11157
25.045
-0.112085
25.0435
-0.112583
25.0427
-0.112971
25.0421
-0.113256
25.042
-0.113478
25.0421
-0.113683
25.0429
-0.113806
25.044
-0.113882
25.0456
-0.113973
25.0482
-0.114152
-0.114511
24.9954
0.0017078
0.00277279
24.9884
0.00448465
0.00568539
24.9773
0.00709842
0.0090551
24.9611
0.0103279
0.013178
24.9395
0.0133243
0.0183898
24.91
0.0182665
0.025122
24.8677
0.026795
0.0337657
24.81
0.0370154
0.0447324
24.754
0.0287675
0.0583148
24.7173
0.0011463
0.0748051
24.6922
-0.019829
0.0935298
24.63
0.00666328
0.113944
24.6591
-0.095177
0.134709
24.7779
-0.194843
0.154443
24.8121
-0.118519
0.171232
24.838
-0.11656
0.184239
24.8627
-0.120128
0.193748
24.8829
-0.119099
0.200627
24.9001
-0.118629
0.205547
24.9273
-0.13047
0.209112
24.9542
-0.131498
0.211664
24.9747
-0.126285
0.213729
24.9907
-0.122639
0.215559
25.0038
-0.120641
0.217278
25.0146
-0.11903
0.218938
25.0239
-0.11821
0.220548
25.0317
-0.117348
0.222094
25.0383
-0.116675
0.223545
25.0441
-0.116384
0.22491
25.0493
-0.116188
0.226181
25.0538
-0.115805
0.22732
25.0576
-0.115474
0.228319
25.0613
-0.115698
0.229148
25.0652
-0.115956
0.229876
25.0686
-0.115751
0.2304
25.0723
-0.116148
0.23081
25.076
-0.116332
0.230928
25.0801
-0.116641
0.230918
25.0848
-0.117254
0.230581
-0.117762
0.229423
24.9955
0.00343601
0.00270471
24.9886
0.0089611
0.00554303
24.977
0.014766
0.00883687
24.9608
0.020699
0.012892
24.9388
0.0271707
0.0180453
24.9111
0.0347037
0.0247506
24.8778
0.0446084
0.0334358
24.835
0.0589125
0.0446219
24.772
0.0638723
0.0587825
24.6961
0.0401985
0.0762818
24.6528
-0.0239352
0.0967582
24.5914
0.00842687
0.119579
24.6272
-0.202161
0.142847
24.7603
-0.410125
0.164815
24.8424
-0.291584
0.182874
24.9117
-0.28355
0.196501
24.9633
-0.274282
0.206368
25.0044
-0.266444
0.213338
25.0501
-0.273107
0.218313
25.0824
-0.273445
0.221795
25.1012
-0.262257
0.224293
25.1143
-0.252594
0.226338
25.123
-0.245456
0.228221
25.1295
-0.242062
0.229948
25.1346
-0.239863
0.231566
25.138
-0.237932
0.233107
25.1402
-0.236424
0.234601
25.1422
-0.236052
0.236033
25.1434
-0.23544
0.237393
25.1439
-0.23499
0.238657
25.1445
-0.234916
0.239806
25.145
-0.234951
0.240824
25.145
-0.23485
0.241749
25.1449
-0.235347
0.242517
25.1455
-0.235975
0.243142
25.1458
-0.236248
0.243601
25.1467
-0.237195
0.243863
25.1483
-0.238323
0.243906
25.1502
-0.239105
0.24369
-0.240445
0.242622
24.9956
0.00517627
0.00256379
24.9889
0.0133469
0.00525469
24.9775
0.0223785
0.00839258
24.9608
0.0318179
0.0122867
24.9378
0.0422979
0.0172904
24.9077
0.0537655
0.0238879
24.8695
0.0675363
0.032612
24.8228
0.0846053
0.0441398
24.7571
0.101054
0.0592414
24.6624
0.0966533
0.0785768
24.5847
0.00532661
0.102293
-0.00482237
0.0058512
-0.00320071
24.7183
-0.037974
0.129242
-0.0585908
-0.0364922
-0.0566604
24.5767
0.0216605
0.156936
-0.0947378
0.0241656
-0.0915197
24.7397
-0.213897
0.182848
-0.123132
-0.210309
-0.118891
24.8313
-0.127442
0.202152
-0.119927
-0.123218
-0.115245
24.8922
-0.116423
0.215799
-0.114861
-0.112302
-0.110266
24.9467
-0.113314
0.225374
-0.112574
-0.109098
-0.108131
25.0121
-0.115243
0.231929
-0.113933
-0.111096
-0.109589
25.0544
-0.111519
0.236424
-0.110076
-0.107601
-0.106646
25.0802
-0.107896
0.239392
-0.106188
-0.104737
-0.102633
25.0986
-0.40402
0.241192
25.1115
-0.390015
0.242917
25.1201
-0.379505
0.244707
25.1264
-0.375162
0.247042
25.1312
-0.37227
0.248913
25.1344
-0.36978
0.250756
25.1367
-0.367615
0.251864
25.1377
-0.366163
0.253022
25.1379
-0.364942
0.253991
25.1383
-0.364632
0.2548
25.1375
-0.363197
0.25547
25.1366
-0.362953
0.256036
25.1361
-0.362836
0.256283
25.1348
-0.362603
0.256974
25.1334
-0.36303
0.257349
25.1325
-0.363704
0.257655
25.1318
-0.364877
0.257842
25.1314
-0.366359
0.257852
25.1321
-0.368146
0.257656
-0.369926
0.256689
24.9966
0.00655477
0.00234779
24.9902
0.0176073
0.00481305
24.9791
0.0299868
0.00769949
24.9626
0.0430905
0.0113112
24.9395
0.0580604
0.0160105
24.9062
0.0765454
0.0222965
24.8613
0.097843
0.0308338
24.8032
0.122267
0.0424519
24.7354
0.14042
0.0583133
6.14263
0.0376017
0.0798108
0.0528105
0.0381229
0.0531905
6.16285
6.14277
6.16245
-0.0114825
6.12554
0.0164657
0.0174496
-0.0150904
-6.11348
6.10162
-0.0340262
0.0229368
-0.018854
-6.10553
6.09823
0.0189717
0.0287274
-0.022602
-6.11354
6.14563
-0.257988
0.034496
-0.0252664
-6.16364
6.17767
-0.154901
0.0386576
-0.0269296
-6.19077
6.20171
-0.141659
0.0412514
-0.0280655
-6.21269
6.22708
-0.142639
0.043032
-0.0288434
-6.23993
6.24715
-0.137855
0.0442482
-0.0293619
-6.25307
6.25833
-0.132442
0.0450201
-0.0296868
-6.26223
6.26635
-0.127897
0.0455542
25.1076
-0.139976
0.260374
-0.140181
-0.14238
-0.140409
-6.27033
-6.27418
-6.2701
-6.27378
25.1158
-0.539496
0.26201
25.1202
-0.525302
0.263237
25.1235
-0.521443
0.266117
25.1247
-0.517579
0.268712
25.1237
-0.514014
0.271273
25.1221
-0.511475
0.272856
25.1193
-0.508868
0.274196
25.1155
-0.506243
0.275076
25.1104
-0.5041
0.275567
25.1051
-0.501519
0.275762
25.099
-0.499606
0.275763
25.0922
-0.497654
0.275388
25.0852
-0.496592
0.275496
25.0779
-0.496006
0.275255
25.0708
-0.496289
0.275089
25.0633
-0.496709
0.27474
25.0563
-0.498321
0.274205
25.0507
-0.501156
0.273337
-0.503393
0.271475
24.9983
0.00630304
0.00205668
24.9931
0.0209353
0.00421314
24.9835
0.0365129
0.00673973
24.9686
0.0533308
0.0099146
24.9463
0.0738071
0.014077
24.9139
0.0998914
0.0194447
24.8648
0.13368
0.0274527
24.7917
0.17661
0.0382224
6.17315
0.225947
0.0534942
6.16614
6.17368
6.16645
-0.0078433
6.15809
0.0485623
0.0119563
-0.0109278
6.13248
0.0167648
-6.16101
0.0197286
0.0111646
0.0198482
0.0110022
-0.0390318
-0.0147514
-6.07979
6.04676
0.0228631
-0.00268921
0.00295186
-0.00273907
0.00297258
0.0242765
-0.0192281
-6.04554
6.05939
0.0299663
0.0516343
-0.0410529
0.0512627
-0.0408744
-0.0458163
-0.0235548
-6.09965
6.14038
0.0368307
-0.0514346
-0.129509
-0.0519407
-0.129154
0.307806
-0.0250519
-6.17051
6.18134
0.0398054
-0.0503747
-0.0536714
-0.0506033
-0.0533694
0.182335
-0.0255735
-6.19442
6.20855
0.0407965
-0.0511628
-0.0502335
-0.0509846
-0.0503431
0.173402
-0.0260474
-6.22252
6.23459
0.0413761
-0.0491164
-0.0487362
-0.0486319
-0.0491939
0.16832
-0.026473
-6.24431
6.25149
0.0416714
-0.0458388
-0.0454236
-0.0454241
-0.0460851
0.16037
-0.0268346
-6.25794
6.26228
0.0418378
-0.0432145
-0.0428076
-0.0426088
-0.0434647
0.152694
-0.0271254
-6.26649
6.26883
0.0420133
-0.040998
-0.0407421
-0.0403902
-0.0411907
0.146043
-6.27158
-0.0270418
6.27352
-0.156812
0.0419109
25.0584
-0.657112
0.252696
-6.27492
-6.27004
-6.27525
-6.26774
25.0338
-0.647191
0.252853
25.0068
-0.640782
0.253087
24.9794
-0.635804
0.252707
24.9534
-0.632433
0.251889
24.9286
-0.629033
0.250609
24.9056
-0.624757
0.248118
24.884
-0.619674
0.245289
24.8631
-0.613883
0.242053
24.8432
-0.607846
0.238618
24.824
-0.602027
0.234966
24.805
-0.596764
0.232018
24.7859
-0.592303
0.229076
24.7671
-0.589284
0.226498
24.7482
-0.587473
0.224244
24.73
-0.587147
0.222135
24.7125
-0.588414
0.219943
24.6964
-0.59171
0.217401
-0.597795
0.213821
25.002
0.0028427
0.0017033
24.9997
0.0216685
0.0034753
24.992
0.0416834
0.00553501
24.9799
0.0616492
0.00810802
24.9622
0.0859997
0.0114647
24.9361
0.118886
0.0154743
24.8935
0.16541
0.0221705
24.8217
0.233028
0.0307403
6.17218
0.337994
0.0431155
6.17134
6.17241
6.17144
-0.00611846
-0.0634863
6.1467
0.0854904
0.00955503
-0.00195378
-0.018928
-1.52793
1.5227
0.0234938
0.00260362
-0.00276115
-0.0177606
-1.50452
1.49213
0.0293009
0.00357673
-0.0040153
-1.47005
0.0532746
1.48016
-0.0646021
0.00518168
-0.00528972
-1.52948
0.153924
1.54089
-0.166999
0.00692139
-0.0042194
-1.53728
0.0601677
-0.0641054
1.53927
0.00613785
-1.54857
-0.00340942
0.058864
-0.0630621
0.00480247
1.55137
-0.00329819
0.0551125
-1.55725
1.55878
-0.0571717
0.00383254
-0.00353336
0.0495654
-1.56201
1.56266
-0.0500451
0.00336147
-0.00375326
0.045862
-1.5637
1.56392
-0.0456217
0.00329044
-0.00380579
0.0431635
-1.56374
1.56348
-0.0425716
0.00347021
-1.5587
-0.0129989
0.163534
6.18202
-0.139088
0.0152159
-1.54654
-1.55839
-1.54507
23.8356
-0.748327
0.114529
-6.11659
-5.81398
-6.08907
-5.79379
23.8437
-0.727224
0.123175
23.851
-0.721194
0.12745
23.8594
-0.716759
0.12851
23.869
-0.712825
0.127763
23.8795
-0.708107
0.125963
23.8914
-0.702081
0.122753
23.9042
-0.694765
0.119159
23.9176
-0.686554
0.115212
23.9314
-0.677917
0.111103
23.9452
-0.669406
0.106746
23.9586
-0.661627
0.102947
23.9716
-0.654911
0.0990247
23.9841
-0.649575
0.0952413
23.9961
-0.645769
0.0915081
24.0078
-0.643513
0.0876977
24.0192
-0.642743
0.0835682
24.0302
-0.643367
0.0786934
-0.645424
0.0722291
25.009
0.00155676
0.00129801
25.0098
0.0197193
0.00263511
25.0064
0.0431289
0.00414844
24.9995
0.0655855
0.00598796
24.9895
0.0920074
0.00831228
24.9758
0.127561
0.0108235
24.9561
0.177549
0.0152518
24.9253
0.25359
0.0203327
6.21337
0.378466
0.0271739
6.22165
6.21342
6.22202
-0.00362044
-0.103581
6.19778
0.117057
0.00572336
-0.00104848
-0.0386532
-1.54185
1.53567
0.0444596
0.00141328
-0.00106847
-0.0803721
-1.50559
1.48713
0.098415
0.00147364
-0.000151503
0.00463458
-0.0749169
0.0751628
-0.00489916
0.000170625
0.00385565
-0.216893
0.0142197
-0.0252402
-0.00403756
0.228096
-1.15708
0.0047688
0.060239
-0.0773784
0.0014227
1.16803
0.00569885
0.0453521
-1.18807
1.19152
-0.0543049
-0.000194987
0.00507527
0.039109
-1.21075
1.21982
-0.0516477
-0.0016112
0.00408689
0.0336582
-1.24881
1.25944
-0.0459211
-0.00246002
0.00333675
0.032433
-1.29089
1.30283
-0.0445087
-0.00320761
-1.36182
0.018265
0.15566
5.74309
-0.203758
-0.0224187
-1.48359
-1.36052
-1.48491
24.1185
-0.672464
-0.194319
-5.8245
-6.16937
-5.91557
-6.17369
24.1478
-0.645207
-0.194594
24.1737
-0.637378
-0.193032
24.1963
-0.632493
-0.190652
24.2147
-0.628383
-0.187104
24.2291
-0.624808
-0.182501
24.2404
-0.621451
-0.17726
24.2496
-0.617899
-0.171843
24.2577
-0.61415
-0.166667
24.2656
-0.610264
-0.162054
24.2743
-0.606591
-0.158242
24.2845
-0.60343
-0.155316
24.2969
-0.600814
-0.15336
24.3114
-0.598522
-0.152276
24.3279
-0.596746
-0.152012
24.3461
-0.595441
-0.152519
24.3658
-0.594493
-0.153859
24.3859
-0.593283
-0.156092
-0.590341
-0.159081
25.0083
-0.00353835
0.000888371
25.0154
0.0117994
0.00176041
25.0221
0.0351415
0.00269285
25.0259
0.0598793
0.00374227
25.0252
0.0902482
0.00493683
25.0295
0.120328
0.00601421
25.0413
0.1618
0.00762788
25.0694
0.220955
0.00872836
6.27576
0.310133
0.00904243
6.2881
6.27727
6.2916
-0.000890277
-0.108745
6.2832
0.100787
0.00143784
-7.57107e-05
-0.0439558
-1.57775
1.57943
0.0422506
0.000109165
0.000637936
-0.0808851
-1.59966
1.61606
0.0645766
-0.000702609
0.00228516
-0.0264197
-1.71177
1.75
0.0587833
-0.00147668
-0.0219069
-0.0273161
-0.0221551
0.00167993
0.112257
-1.71004
1.67888
-0.0799514
-0.00278555
0.106316
-1.60893
0.00196513
1.59805
-0.0938551
-0.00349878
0.0031173
0.0749644
-1.58339
-0.00453882
1.58125
-0.0713807
0.00409285
0.0539376
-1.57794
1.57641
-0.0511304
-0.00536181
0.00471755
0.0548335
-1.57549
1.57403
-0.0521777
-0.00591253
0.00511097
0.0485926
-1.57318
1.57253
-0.0467576
-0.0062904
0.00533844
0.0449135
-1.56971
1.57
-0.0440125
-0.00653378
-1.56998
0.0230127
0.171949
6.27467
-0.152489
-0.0360614
-1.57009
-1.57018
-1.57081
25.0852
-0.518075
-0.241672
-6.27703
-6.27039
-6.2819
-6.27534
25.0842
-0.510018
-0.240742
25.08
-0.499689
-0.239461
25.0754
-0.494301
-0.239164
25.0709
-0.490164
-0.2392
25.0673
-0.487695
-0.239225
25.0642
-0.485509
-0.239209
25.0618
-0.483578
-0.23918
25.0602
-0.481726
-0.239174
25.0591
-0.47965
-0.239241
25.0586
-0.477811
-0.239447
25.059
-0.476318
-0.240073
25.0594
-0.47486
-0.240452
25.0597
-0.472934
-0.241321
25.0606
-0.471882
-0.242471
25.0616
-0.470405
-0.244015
25.0627
-0.468808
-0.246046
25.064
-0.46648
-0.248635
-0.463865
-0.251561
25.007
-0.00811338
0.000484898
25.0171
0.00116555
0.000931787
25.0312
0.020279
0.00131221
25.0396
0.0505735
0.00161085
25.0572
0.0716173
0.00173207
25.0806
0.0959299
0.00148863
25.1183
0.12346
0.000531022
25.1834
0.15631
-0.00181368
6.32937
0.197249
-0.00673591
6.31854
6.33377
6.3174
-0.085661
0.00143395
6.34761
0.0681649
-0.00219136
-0.0328496
0.00340335
6.42077
0.0875038
-0.00488945
-0.0309514
-0.0330737
-0.0300943
-6.37987
-0.0293409
0.00698496
6.49206
0.081062
-0.0100433
-0.0287266
-0.0283985
-0.030979
-6.45255
-0.009098
0.0117714
-6.54031
6.49953
-0.0591676
-0.01795
0.0631634
-0.0103002
0.0625784
0.0355807
0.0171787
-6.49218
6.47369
-0.146101
-0.026506
0.0520279
0.0350301
0.0514903
0.0585897
-6.45011
0.0218474
6.40646
-0.184769
-0.0336304
0.0580954
0.0620606
0.0615742
0.0562464
0.0251718
-6.36628
6.33825
-0.178309
-0.0386011
0.0542398
0.0556142
0.0536502
0.0456857
0.0274425
-6.32435
6.31723
-0.158782
-0.0418832
0.0449004
0.0452018
0.0445149
0.0440116
0.0288073
-6.3131
6.30537
-0.153148
-0.0437987
0.044391
0.0435548
0.0439114
0.0429281
0.0294349
-6.29695
6.28828
-0.141782
-0.0447291
0.0403845
0.0425081
0.0399562
0.0378116
0.0296588
-6.28114
6.27359
-0.124196
-0.0450588
0.0348342
0.0384064
0.0361232
0.134147
-6.27233
0.0296947
6.2729
-0.119442
-0.0449576
25.0767
-0.377777
-0.253029
-6.27155
-6.26955
-6.27183
-6.26913
25.0703
-0.370016
-0.251118
25.0664
-0.363053
-0.249749
25.0628
-0.358373
-0.249297
25.0603
-0.355607
-0.249052
25.0577
-0.353601
-0.248811
25.0558
-0.352653
-0.248556
25.0545
-0.351996
-0.248296
25.0533
-0.350954
-0.248049
25.053
-0.350406
-0.247842
25.0528
-0.349292
-0.247675
25.0532