/*--------------------------------*- C++ -*----------------------------------*\
| =========                 |                                                 |
| \\      /  F ield         | OpenFOAM: The Open Source CFD Toolbox           |
|  \\    /   O peration     | Version:  2306                                  |
|   \\  /    A nd           | Website:  www.openfoam.com                      |
|    \\/     M anipulation  |                                                 |
\*---------------------------------------------------------------------------*/
FoamFile
{
    version     2.0;
    format      ascii;
    arch        "LSB;label=32;scalar=64";
    class       volVectorField;
    location    "0.95";
    object      U;
}
// * * * * * * * * * * * * * * * * * * * * * * * * * * * * * * * * * * * * * //

dimensions      [0 1 -1 0 0 0 0];

internalField   nonuniform List<vector> 
111542
(
(99.9932 0.00534105 0.00296041)
(99.9706 0.0108242 0.0061861)
(99.9289 0.0164333 0.00976755)
(99.8669 0.0223343 0.014147)
(99.7832 0.0282812 0.0196869)
(99.6758 0.0335009 0.0268179)
(99.5439 0.0361292 0.0357893)
(99.3897 0.0331868 0.0470809)
(99.2229 0.0200229 0.0611826)
(99.0635 -0.0097771 0.0781238)
(98.9447 -0.0618162 0.0974426)
(98.907 -0.133685 0.118325)
(98.9763 -0.207115 0.139857)
(99.1426 -0.262329 0.159934)
(99.3606 -0.288787 0.176857)
(99.5819 -0.296366 0.190174)
(99.7803 -0.294189 0.199952)
(99.9487 -0.286878 0.206973)
(100.088 -0.277259 0.211953)
(100.201 -0.267338 0.215625)
(100.289 -0.258508 0.218246)
(100.358 -0.251207 0.220298)
(100.409 -0.245308 0.222307)
(100.448 -0.241211 0.22424)
(100.478 -0.238743 0.226233)
(100.5 -0.237439 0.228526)
(100.517 -0.23734 0.230895)
(100.529 -0.238202 0.233334)
(100.538 -0.239596 0.235942)
(100.543 -0.241283 0.238639)
(100.547 -0.24313 0.241288)
(100.549 -0.245096 0.243719)
(100.551 -0.246963 0.245979)
(100.552 -0.248671 0.247994)
(100.554 -0.250221 0.249657)
(100.557 -0.25165 0.250866)
(100.561 -0.25304 0.251494)
(100.567 -0.254286 0.251646)
(100.576 -0.255447 0.251341)
(100.592 -0.256776 0.250642)
(99.9935 0.0159152 0.00290175)
(99.9713 0.0322019 0.0059883)
(99.9301 0.049267 0.00952466)
(99.8684 0.067524 0.0138498)
(99.784 0.0864123 0.0193184)
(99.6733 0.103865 0.0263506)
(99.5331 0.114961 0.035383)
(99.3631 0.110868 0.0469242)
(99.1693 0.0769238 0.0614413)
(98.9709 -0.00795156 0.0791004)
(98.8092 -0.161014 0.099683)
(98.7505 -0.375403 0.121573)
(98.8386 -0.598109 0.144831)
(99.0509 -0.75692 0.166655)
(99.3141 -0.833525 0.184671)
(99.5636 -0.8586 0.198285)
(99.7765 -0.854992 0.208118)
(99.9522 -0.835885 0.215126)
(100.094 -0.81007 0.220123)
(100.206 -0.78264 0.2237)
(100.293 -0.756923 0.226227)
(100.358 -0.73602 0.228265)
(100.407 -0.720389 0.230169)
(100.443 -0.709493 0.232073)
(100.47 -0.701328 0.234111)
(100.49 -0.694781 0.236419)
(100.506 -0.69023 0.239008)
(100.516 -0.687693 0.241854)
(100.524 -0.686696 0.244911)
(100.529 -0.686886 0.248077)
(100.532 -0.68805 0.251226)
(100.534 -0.690051 0.254231)
(100.535 -0.692547 0.257005)
(100.535 -0.695374 0.259448)
(100.537 -0.698469 0.261449)
(100.539 -0.701813 0.262914)
(100.542 -0.705438 0.263762)
(100.548 -0.709156 0.263982)
(100.556 -0.712952 0.263592)
(100.569 -0.716924 0.262741)
(99.9938 0.026114 0.00275192)
(99.9727 0.0529479 0.0056645)
(99.933 0.0818288 0.00903033)
(99.8728 0.11367 0.0131721)
(99.7881 0.148252 0.018454)
(99.6728 0.183272 0.0253345)
(99.519 0.212424 0.0343585)
(99.3195 0.222048 0.0461607)
(99.0716 0.18544 0.0614122)
(98.7928 0.0540743 0.0806531)
(98.543 -0.280922 0.10414)
(98.4341 -0.742434 0.131033)
(98.5612 -1.1576 0.156151)
(98.8692 -1.39104 0.179602)
(99.2146 -1.48088 0.198057)
(99.5127 -1.50233 0.211136)
(99.7527 -1.48125 0.220152)
(99.9419 -1.4397 0.226395)
(100.089 -1.39161 0.230764)
(100.201 -1.34304 0.233713)
(100.284 -1.29869 0.235166)
(100.343 -1.25914 0.236203)
(100.386 -1.23561 0.237522)
(100.419 -1.22593 0.239191)
(100.445 -1.22201 0.241175)
(100.464 -1.22007 0.243571)
(100.478 -1.21963 0.246492)
(100.486 -1.22054 0.249977)
(100.491 -1.22241 0.253985)
(100.492 -1.22494 0.258405)
(100.492 -1.22798 0.263063)
(100.49 -1.23143 0.26775)
(100.487 -1.23517 0.272238)
(100.484 -1.23912 0.276303)
(100.48 -1.24323 0.27972)
(100.478 -1.2475 0.282294)
(100.476 -1.25191 0.283859)
(100.477 -1.2564 0.28432)
(100.48 -1.26085 0.283693)
(100.488 -1.2649 0.282251)
(99.9945 0.0354815 0.00251894)
(99.9754 0.0723256 0.00517759)
(99.9393 0.112971 0.00825976)
(99.8833 0.159528 0.0120827)
(99.8017 0.213247 0.0170121)
(99.6851 0.273647 0.0235255)
(99.5191 0.336515 0.0322443)
(99.283 0.389278 0.0439434)
(98.9479 0.402211 0.0595548)
(98.4504 0.201016 0.0801552)
(98.1941 0.0217104 0.0866157)
(97.8512 -0.633105 0.101398)
(97.9215 -1.43136 0.114513)
(98.405 -1.93737 0.125559)
(98.9082 -2.0748 0.135734)
(99.2972 -2.09368 0.142099)
(99.6065 -2.04855 0.146138)
(99.8401 -1.97243 0.148616)
(100.014 -1.89082 0.150141)
(100.146 -1.81659 0.151139)
(100.318 -1.8598 0.237569)
(100.361 -1.78314 0.23712)
(100.377 -1.72726 0.237466)
(100.388 -1.69332 0.239301)
(100.4 -1.67261 0.242542)
(100.407 -1.66144 0.247041)
(100.407 -1.65765 0.252675)
(100.401 -1.65913 0.259288)
(100.389 -1.66411 0.266652)
(100.374 -1.67146 0.274454)
(100.354 -1.6804 0.282323)
(100.331 -1.69036 0.28987)
(100.306 -1.70092 0.29671)
(100.279 -1.71176 0.302489)
(100.251 -1.72263 0.306902)
(100.223 -1.73336 0.309701)
(100.196 -1.74387 0.310698)
(100.171 -1.75409 0.309808)
(100.15 -1.76385 0.307112)
(100.128 -1.772 0.303144)
(99.9955 0.0432913 0.00220379)
(99.98 0.0887548 0.00452009)
(99.9503 0.140166 0.0072035)
(99.903 0.201392 0.0105439)
(99.8317 0.276304 0.0148781)
(99.725 0.368669 0.0206466)
(99.563 0.481324 0.0284486)
(99.3133 0.612955 0.0390481)
(98.8709 0.750208 0.053399)
(98.5272 0.757419 0.058532)
(97.7169 0.36816 0.0710184)
(96.9182 -0.695274 0.0865559)
(97.0209 -2.33989 0.0988744)
(98.1565 -2.92674 0.106613)
(98.8845 -2.92529 0.114672)
(99.3422 -2.85777 0.119476)
(99.6905 -2.72663 0.123962)
(99.9249 -2.58572 0.128181)
(100.085 -2.45726 0.132032)
(100.189 -2.3522 0.136178)
(100.262 -2.30259 0.14793)
(100.232 -2.39782 0.242792)
(100.127 -2.38978 0.233561)
(100.023 -2.36448 0.226013)
(99.9264 -2.33465 0.221971)
(99.8303 -2.3097 0.22237)
(99.7328 -2.2908 0.227292)
(99.6349 -2.27669 0.2362)
(99.5372 -2.26643 0.248092)
(99.4398 -2.25957 0.261664)
(99.3432 -2.25575 0.275528)
(99.248 -2.25462 0.2884)
(99.155 -2.25581 0.299215)
(99.0652 -2.2589 0.307185)
(98.9792 -2.26345 0.311824)
(98.898 -2.26903 0.312908)
(98.8223 -2.27532 0.310423)
(98.7534 -2.28228 0.304554)
(98.6931 -2.29043 0.295713)
(98.636 -2.30168 0.28493)
(99.997 0.0486198 0.00181402)
(99.9867 0.100198 0.00370727)
(99.9665 0.159803 0.00588028)
(99.9339 0.233166 0.0085661)
(99.883 0.327255 0.0120281)
(99.8034 0.451499 0.0165985)
(99.676 0.619659 0.0227147)
(99.4639 0.852142 0.0308909)
(99.0432 1.18051 0.0416667)
(98.6339 1.34279 0.0457597)
(97.6809 1.48528 0.0431659)
(95.579 0.719697 0.0383507)
(94.3914 -3.41708 0.0509446)
(98.2279 -4.68837 0.0386912)
(98.7881 -3.80629 0.0513581)
(99.3286 -3.67473 0.0490344)
(99.681 -3.45281 0.0395847)
(99.8176 -3.24816 0.0351141)
(99.8325 -3.09116 0.0435347)
(99.7541 -2.95009 0.0663319)
(98.5624 -2.70635 0.301254)
(95.4436 -2.0958 0.211689)
(95.4948 -2.1704 0.196399)
(95.5538 -2.212 0.181649)
(95.5912 -2.23922 0.169781)
(95.614 -2.26466 0.161397)
(95.632 -2.29097 0.155713)
(95.6491 -2.31776 0.151462)
(95.6671 -2.34461 0.147402)
(95.687 -2.37124 0.142554)
(95.7099 -2.3974 0.136316)
(95.7364 -2.42277 0.128478)
(95.7669 -2.44708 0.119152)
(95.8013 -2.47001 0.108682)
(95.8391 -2.49124 0.0975311)
(95.88 -2.51045 0.0861625)
(95.9233 -2.52739 0.0749536)
(95.9682 -2.5421 0.0641419)
(96.0134 -2.5553 0.0538485)
(96.0651 -2.56943 0.0444108)
(99.9989 0.0505837 0.00138239)
(99.995 0.104642 0.00278975)
(99.9873 0.168077 0.00436741)
(99.9743 0.24789 0.00626808)
(99.9535 0.353249 0.00863882)
(99.92 0.497893 0.0116392)
(99.8655 0.704047 0.0154237)
(99.7754 1.0105 0.0200455)
(99.6017 1.4909 0.0252313)
(99.3334 1.89253 0.027156)
(98.6152 2.83176 0.0235415)
(95.4888 5.84133 0.0140743)
(77.0958 -4.20893 0.0262349)
(102.764 -10.2883 0.0217633)
(55.9542 -4.58901 -0.60965)
(75.7734 -4.75111 -0.0801421)
(80.4617 -4.21887 -0.136874)
(83.7595 -3.96015 -0.177201)
(86.177 -3.76656 -0.194289)
(88.0558 -3.64643 -0.184044)
(93.0566 -3.78588 -0.251477)
(95.6826 -3.079 -0.222637)
(95.8307 -2.95734 -0.208406)
(95.9965 -2.87607 -0.198835)
(96.1405 -2.82032 -0.197022)
(96.2705 -2.78021 -0.20277)
(96.3967 -2.75134 -0.214666)
(96.522 -2.73097 -0.230784)
(96.6461 -2.71686 -0.248958)
(96.7683 -2.70719 -0.267079)
(96.888 -2.70054 -0.283351)
(97.0044 -2.69579 -0.29644)
(97.1169 -2.69211 -0.305515)
(97.2246 -2.6888 -0.310211)
(97.3266 -2.68533 -0.31057)
(97.4223 -2.68129 -0.30696)
(97.5112 -2.67629 -0.30002)
(97.593 -2.66991 -0.290581)
(97.6673 -2.66141 -0.279669)
(97.7484 -2.64874 -0.268779)
(100.001 0.0486352 0.000972344)
(100.004 0.100753 0.00187341)
(100.01 0.162386 0.00281766)
(100.019 0.240644 0.00387032)
(100.032 0.344884 0.00504731)
(100.053 0.488924 0.00630885)
(100.086 0.694382 0.00750103)
(100.148 0.997253 0.00820371)
(100.293 1.4599 0.00743)
(100.342 1.87209 0.00699625)
(100.618 2.85952 0.0024883)
(102.451 5.38448 -0.00810613)
(111.158 3.83781 -0.0451264)
(108.987 -6.58522 0.0408283)
(102.758 -6.5983 -0.0202683)
(101.111 -4.81332 -0.0340304)
(100.667 -3.83411 -0.0347912)
(100.498 -3.29915 -0.0363052)
(100.42 -2.98803 -0.0408758)
(100.362 -2.80832 -0.047423)
(100.275 -2.59368 -0.146102)
(100.303 -2.17041 -0.227307)
(100.288 -2.07147 -0.221288)
(100.277 -2.01842 -0.215109)
(100.268 -1.99418 -0.211041)
(100.258 -1.984 -0.209832)
(100.246 -1.98177 -0.211617)
(100.236 -1.98484 -0.216341)
(100.227 -1.9912 -0.223681)
(100.219 -1.99921 -0.233037)
(100.212 -2.00773 -0.243638)
(100.207 -2.01595 -0.254668)
(100.203 -2.02336 -0.265362)
(100.201 -2.02957 -0.275076)
(100.2 -2.03432 -0.283334)
(100.2 -2.03739 -0.289857)
(100.202 -2.03856 -0.294568)
(100.205 -2.03744 -0.297569)
(100.21 -2.03326 -0.299087)
(100.222 -2.02408 -0.299247)
(100.003 0.042615 0.000489869)
(100.012 0.0883462 0.000905653)
(100.031 0.142468 0.00126463)
(100.06 0.211071 0.00152384)
(100.105 0.301824 0.00158226)
(100.172 0.42504 0.00123641)
(100.275 0.595032 9.02183e-05)
(100.442 0.831383 -0.00258332)
(100.76 1.15857 -0.00812822)
(100.986 1.399 -0.0102817)
(101.841 1.85728 -0.0178896)
(103.458 1.7616 -0.0318569)
(105.237 -0.243508 -0.0467522)
(104.771 -2.80821 -0.0210731)
(102.969 -3.50999 -0.0376938)
(101.753 -3.28179 -0.0549136)
(101.127 -2.92112 -0.0663536)
(100.795 -2.61572 -0.0733738)
(100.606 -2.38625 -0.0777219)
(100.484 -2.21592 -0.0807352)
(100.397 -2.08258 -0.0845314)
(100.305 -1.80966 -0.230108)
(100.274 -1.77568 -0.227868)
(100.254 -1.75314 -0.226385)
(100.241 -1.74085 -0.226146)
(100.23 -1.73433 -0.227168)
(100.222 -1.73075 -0.229302)
(100.214 -1.72889 -0.232383)
(100.208 -1.728 -0.236203)
(100.203 -1.72735 -0.240484)
(100.199 -1.7264 -0.244914)
(100.197 -1.72482 -0.249189)
(100.195 -1.72239 -0.253039)
(100.195 -1.71904 -0.256259)
(100.196 -1.71467 -0.258725)
(100.199 -1.70926 -0.260406)
(100.202 -1.70274 -0.261361)
(100.208 -1.695 -0.261738)
(100.217 -1.68598 -0.261761)
(100.236 -1.676 -0.261747)
(100.004 0.0330402 0.00013319)
(100.019 0.0685224 0.00018699)
(100.048 0.110376 4.43197e-05)
(100.094 0.163017 -0.000381892)
(100.161 0.231577 -0.00125558)
(100.26 0.321977 -0.00289373)
(100.406 0.440555 -0.00582228)
(100.625 0.591779 -0.0108897)
(100.96 0.771781 -0.0194595)
(101.447 0.855985 -0.0332238)
(102.088 0.758267 -0.053786)
(102.764 0.229617 -0.0820181)
(103.12 -0.757712 -0.113556)
(102.869 -1.58382 -0.141914)
(102.224 -1.88349 -0.171011)
(101.593 -1.88191 -0.194492)
(101.15 -1.78924 -0.209888)
(100.864 -1.67817 -0.219096)
(100.676 -1.57348 -0.224477)
(100.544 -1.48154 -0.227471)
(100.454 -1.40261 -0.228811)
(100.394 -1.33325 -0.228808)
(100.353 -1.27927 -0.228683)
(100.323 -1.23747 -0.228893)
(100.3 -1.20671 -0.229519)
(100.282 -1.18488 -0.230617)
(100.267 -1.16953 -0.23222)
(100.254 -1.15886 -0.234312)
(100.243 -1.15152 -0.236821)
(100.234 -1.14646 -0.239627)
(100.227 -1.1428 -0.242587)
(100.221 -1.13988 -0.245546)
(100.217 -1.13724 -0.248364)
(100.214 -1.13452 -0.25092)
(100.213 -1.13141 -0.253144)
(100.214 -1.12776 -0.255008)
(100.216 -1.12345 -0.256535)
(100.221 -1.11838 -0.257807)
(100.227 -1.11261 -0.258956)
(100.239 -1.10647 -0.260175)
(100.005 0.020885 -0.000154133)
(100.024 0.0432151 -0.000425604)
(100.06 0.069547 -0.000941357)
(100.116 0.102265 -0.00183658)
(100.198 0.1443 -0.00335446)
(100.314 0.198106 -0.0058483)
(100.478 0.265167 -0.00987525)
(100.706 0.342968 -0.016205)
(101.016 0.418495 -0.0258914)
(101.416 0.452266 -0.0401312)
(101.881 0.388055 -0.0600286)
(102.31 0.151263 -0.0860894)
(102.53 -0.26783 -0.115933)
(102.412 -0.694253 -0.145126)
(102.023 -0.934395 -0.171756)
(101.566 -0.989706 -0.192865)
(101.19 -0.957078 -0.207666)
(100.92 -0.899513 -0.217036)
(100.729 -0.84064 -0.222735)
(100.588 -0.787306 -0.22607)
(100.484 -0.742304 -0.227867)
(100.408 -0.708516 -0.2287)
(100.352 -0.686148 -0.229204)
(100.31 -0.672628 -0.22972)
(100.279 -0.665634 -0.230421)
(100.255 -0.663413 -0.2314)
(100.236 -0.66433 -0.232688)
(100.221 -0.667076 -0.234249)
(100.21 -0.670747 -0.235997)
(100.201 -0.674722 -0.237823)
(100.195 -0.678544 -0.239613)
(100.19 -0.681913 -0.24126)
(100.187 -0.684645 -0.242673)
(100.186 -0.686684 -0.243789)
(100.187 -0.687738 -0.244617)
(100.189 -0.687961 -0.245149)
(100.193 -0.687413 -0.245432)
(100.198 -0.686132 -0.245574)
(100.207 -0.684205 -0.245746)
(100.225 -0.681665 -0.246262)
(100.006 0.00714035 -0.000328871)
(100.026 0.0147384 -0.00072611)
(100.065 0.0237261 -0.00146485)
(100.126 0.0347547 -0.00255198)
(100.215 0.0488717 -0.00442061)
(100.338 0.0666401 -0.00735768)
(100.508 0.0880696 -0.0119563)
(100.735 0.111667 -0.0188702)
(101.026 0.132288 -0.0291449)
(101.375 0.13725 -0.0434704)
(101.747 0.106627 -0.0625239)
(102.067 0.0199422 -0.0863014)
(102.231 -0.119109 -0.113326)
(102.163 -0.262794 -0.140713)
(101.889 -0.353538 -0.165033)
(101.529 -0.380894 -0.184688)
(101.197 -0.373959 -0.199065)
(100.938 -0.357259 -0.208458)
(100.746 -0.339945 -0.214314)
(100.602 -0.324313 -0.217851)
(100.493 -0.311118 -0.219958)
(100.413 -0.300822 -0.221227)
(100.353 -0.29287 -0.222107)
(100.31 -0.286453 -0.222854)
(100.277 -0.280841 -0.223771)
(100.253 -0.275719 -0.224936)
(100.234 -0.270884 -0.226336)
(100.219 -0.266193 -0.227926)
(100.207 -0.26159 -0.229635)
(100.198 -0.257066 -0.231375)
(100.191 -0.252626 -0.233056)
(100.186 -0.248277 -0.234588)
(100.182 -0.244038 -0.235892)
(100.18 -0.239958 -0.236876)
(100.18 -0.235831 -0.237729)
(100.182 -0.231783 -0.238342)
(100.185 -0.227852 -0.238736)
(100.19 -0.224068 -0.239015)
(100.198 -0.220574 -0.23935)
(100.211 -0.217897 -0.240062)
(99.9937 0.00528286 0.0085215)
(99.9722 0.0106276 0.0177002)
(99.9324 0.0161935 0.0281395)
(99.8734 0.0220435 0.0409137)
(99.7938 0.0279223 0.0570498)
(99.6914 0.0330497 0.0777363)
(99.5654 0.0357437 0.104006)
(99.4183 0.0330526 0.137223)
(99.259 0.020306 0.178615)
(99.1068 -0.00879424 0.228416)
(98.9938 -0.0596501 0.285799)
(98.9598 -0.13046 0.348292)
(99.0295 -0.20181 0.411912)
(99.1926 -0.254931 0.47109)
(99.4057 -0.280218 0.521087)
(99.6216 -0.28742 0.560421)
(99.8146 -0.285145 0.589551)
(99.978 -0.277812 0.610486)
(100.112 -0.268151 0.625279)
(100.219 -0.258337 0.635855)
(100.303 -0.249529 0.643395)
(100.365 -0.242187 0.649269)
(100.412 -0.236346 0.654671)
(100.446 -0.232237 0.659775)
(100.472 -0.229682 0.664713)
(100.492 -0.22833 0.669679)
(100.507 -0.227981 0.674344)
(100.518 -0.228415 0.678679)
(100.526 -0.229357 0.682799)
(100.532 -0.230584 0.686603)
(100.537 -0.231949 0.689945)
(100.54 -0.233363 0.692681)
(100.544 -0.234751 0.69495)
(100.547 -0.236076 0.696743)
(100.55 -0.237328 0.697994)
(100.555 -0.238536 0.698635)
(100.56 -0.239732 0.698552)
(100.567 -0.240924 0.697875)
(100.577 -0.24217 0.696583)
(100.593 -0.243629 0.694667)
(99.9939 0.0157081 0.00833016)
(99.9728 0.0316844 0.0172157)
(99.9336 0.0485383 0.027466)
(99.8749 0.0665646 0.0400441)
(99.7944 0.0852055 0.0559871)
(99.6886 0.102431 0.0765296)
(99.5545 0.113607 0.103029)
(99.3915 0.110049 0.137034)
(99.2054 0.0772648 0.179974)
(99.0145 -0.00534457 0.232608)
(98.8584 -0.154518 0.294397)
(98.8034 -0.362617 0.362823)
(98.8916 -0.580563 0.433137)
(99.099 -0.736893 0.49796)
(99.3551 -0.811886 0.551023)
(99.5979 -0.837125 0.59121)
(99.8051 -0.834224 0.620253)
(99.9758 -0.815836 0.640827)
(100.113 -0.790593 0.655299)
(100.22 -0.763825 0.665445)
(100.302 -0.739113 0.672568)
(100.363 -0.719081 0.678453)
(100.408 -0.70401 0.683983)
(100.441 -0.693269 0.689168)
(100.465 -0.685045 0.693995)
(100.484 -0.678375 0.698605)
(100.498 -0.673318 0.703027)
(100.509 -0.669861 0.707249)
(100.516 -0.667657 0.711233)
(100.522 -0.66638 0.714891)
(100.526 -0.665837 0.718141)
(100.529 -0.665917 0.720936)
(100.531 -0.66651 0.723301)
(100.533 -0.667597 0.725233)
(100.535 -0.669207 0.726696)
(100.538 -0.671382 0.727641)
(100.542 -0.674195 0.727998)
(100.547 -0.677646 0.727735)
(100.555 -0.681702 0.726809)
(100.569 -0.686279 0.725268)
(99.9942 0.025733 0.00790049)
(99.9742 0.0521434 0.0163108)
(99.9364 0.0805772 0.0260737)
(99.879 0.111928 0.0381402)
(99.7981 0.145988 0.0535927)
(99.6876 0.180532 0.0737915)
(99.54 0.20943 0.1004)
(99.3479 0.219291 0.135399)
(99.1086 0.183848 0.180905)
(98.8388 0.0553001 0.238676)
(98.5972 -0.272825 0.309135)
(98.4908 -0.725011 0.389086)
(98.6131 -1.13157 0.469932)
(98.9121 -1.36166 0.542845)
(99.2478 -1.45199 0.59919)
(99.5383 -1.47544 0.639138)
(99.7727 -1.45623 0.666448)
(99.957 -1.41595 0.684922)
(100.099 -1.36853 0.697412)
(100.206 -1.32042 0.705656)
(100.285 -1.27774 0.710117)
(100.342 -1.24115 0.714391)
(100.383 -1.21948 0.719801)
(100.415 -1.21012 0.725364)
(100.441 -1.20536 0.730267)
(100.46 -1.20185 0.734445)
(100.474 -1.1993 0.738045)
(100.484 -1.1977 0.74113)
(100.49 -1.19675 0.743709)
(100.493 -1.19627 0.745802)
(100.494 -1.19618 0.747456)
(100.493 -1.19654 0.748751)
(100.491 -1.19738 0.749786)
(100.488 -1.19878 0.750636)
(100.484 -1.20085 0.751329)
(100.481 -1.2037 0.751826)
(100.479 -1.20746 0.752026)
(100.478 -1.2122 0.75179)
(100.48 -1.21779 0.751025)
(100.487 -1.22358 0.749925)
(99.9949 0.0349365 0.00723519)
(99.9768 0.0711901 0.0149295)
(99.9424 0.111163 0.0238959)
(99.8889 0.156934 0.0350695)
(99.8108 0.20973 0.0495515)
(99.6989 0.269078 0.0687846)
(99.539 0.330821 0.0946969)
(99.3107 0.382537 0.12977)
(98.9853 0.394773 0.177067)
(98.4996 0.195926 0.240093)
(98.2438 0.0131613 0.271644)
(97.9058 -0.645366 0.344371)
(97.9751 -1.43945 0.421824)
(98.4494 -1.95002 0.492766)
(98.9388 -2.09466 0.544765)
(99.32 -2.12155 0.578155)
(99.6253 -2.08057 0.599297)
(99.856 -2.0055 0.6125)
(100.027 -1.92307 0.620788)
(100.156 -1.84695 0.626094)
(100.314 -1.88354 0.733605)
(100.356 -1.81313 0.736626)
(100.374 -1.76332 0.741501)
(100.388 -1.7341 0.747941)
(100.401 -1.7158 0.754799)
(100.409 -1.70427 0.761157)
(100.41 -1.69733 0.766494)
(100.404 -1.693 0.7706)
(100.395 -1.68992 0.77347)
(100.38 -1.68747 0.775249)
(100.363 -1.68558 0.77618)
(100.342 -1.68444 0.776547)
(100.319 -1.68433 0.776621)
(100.294 -1.68559 0.776602)
(100.267 -1.68851 0.776583)
(100.24 -1.69337 0.776525)
(100.213 -1.70038 0.776239)
(100.186 -1.7097 0.77542)
(100.162 -1.72117 0.773736)
(100.137 -1.73326 0.771084)
(99.9959 0.0425903 0.0063355)
(99.9812 0.0872956 0.0130539)
(99.9529 0.137809 0.0208856)
(99.9079 0.197915 0.0306867)
(99.8396 0.271389 0.0434814)
(99.737 0.361876 0.0606408)
(99.5805 0.472049 0.0840744)
(99.3379 0.600369 0.116341)
(98.9051 0.733109 0.160732)
(98.5639 0.734836 0.185553)
(97.7627 0.342675 0.247461)
(96.9707 -0.718897 0.326468)
(97.0685 -2.34963 0.417534)
(98.1769 -2.94727 0.492933)
(98.8794 -2.97117 0.528629)
(99.3349 -2.92359 0.538324)
(99.6871 -2.7996 0.541266)
(99.9232 -2.658 0.542685)
(100.082 -2.52605 0.543996)
(100.189 -2.41663 0.545669)
(100.263 -2.34943 0.540697)
(100.185 -2.53111 0.624813)
(100.07 -2.51769 0.631707)
(99.9568 -2.48938 0.635515)
(99.8542 -2.45696 0.638539)
(99.7562 -2.42819 0.640566)
(99.6621 -2.40334 0.640778)
(99.5729 -2.38071 0.638899)
(99.4889 -2.35933 0.635162)
(99.409 -2.33906 0.630084)
(99.3323 -2.32016 0.624304)
(99.2576 -2.30313 0.618451)
(99.1842 -2.28851 0.613042)
(99.1115 -2.27682 0.60841)
(99.0389 -2.2685 0.604663)
(98.9665 -2.26386 0.601665)
(98.8946 -2.26321 0.598997)
(98.8243 -2.26697 0.596014)
(98.7585 -2.27603 0.591932)
(98.6922 -2.29247 0.586265)
(99.9974 0.0478019 0.00523522)
(99.9876 0.0984786 0.0107481)
(99.9686 0.156987 0.0171213)
(99.9376 0.228926 0.025046)
(99.889 0.321078 0.035335)
(99.8125 0.44261 0.0490568)
(99.689 0.606863 0.0676663)
(99.4819 0.833583 0.0930736)
(99.0672 1.15318 0.127589)
(98.6594 1.31102 0.147461)
(97.709 1.44563 0.173123)
(95.6149 0.66794 0.219954)
(94.4311 -3.45714 0.3131)
(98.2329 -4.71824 0.393424)
(98.7507 -3.90801 0.327249)
(99.3254 -3.77872 0.258266)
(99.7181 -3.47143 0.238826)
(99.8955 -3.168 0.242203)
(99.9589 -2.94313 0.248228)
(99.9371 -2.77187 0.245871)
(98.9966 -2.55302 0.125192)
(95.1728 -2.47718 0.178877)
(95.219 -2.54795 0.231142)
(95.2774 -2.58815 0.266895)
(95.3243 -2.61135 0.291762)
(95.3664 -2.62478 0.308661)
(95.4117 -2.62797 0.318931)
(95.4622 -2.62014 0.323874)
(95.5168 -2.60249 0.324869)
(95.574 -2.5776 0.323132)
(95.6324 -2.54864 0.319614)
(95.6906 -2.51886 0.315011)
(95.7478 -2.49116 0.309721)
(95.8033 -2.46795 0.303957)
(95.8568 -2.4509 0.297755)
(95.9082 -2.44101 0.290977)
(95.9577 -2.43869 0.283278)
(96.0057 -2.4441 0.274057)
(96.0524 -2.45775 0.262369)
(96.1087 -2.48249 0.246778)
(99.9991 0.049729 0.00397701)
(99.9956 0.102802 0.00810003)
(99.9886 0.165015 0.0127638)
(99.9766 0.243205 0.0184111)
(99.957 0.346296 0.0255119)
(99.9251 0.487667 0.0346133)
(99.8723 0.688963 0.0463419)
(99.7839 0.988091 0.0611938)
(99.6104 1.4572 0.0789701)
(99.3413 1.85253 0.0885184)
(98.618 2.77801 0.0951949)
(95.4646 5.73594 0.0921492)
(77.3007 -4.51426 0.192507)
(55.3411 -4.72282 -1.16666)
(73.611 -4.38823 -0.309709)
(75.5912 -3.21436 -0.32351)
(77.632 -2.60651 -0.293404)
(80.1256 -2.32561 -0.217274)
(82.8633 -2.31656 -0.15493)
(91.4019 -3.2732 -0.229046)
(96.342 -3.33061 -0.446551)
(96.4761 -3.2114 -0.460269)
(96.6174 -3.13424 -0.466515)
(96.7253 -3.08132 -0.467537)
(96.8064 -3.03944 -0.462947)
(96.8703 -3.0018 -0.453291)
(96.9215 -2.9651 -0.440147)
(96.9627 -2.92805 -0.425385)
(96.9977 -2.89069 -0.410756)
(97.0304 -2.85388 -0.397716)
(97.0648 -2.81883 -0.387313)
(97.104 -2.78675 -0.380151)
(97.1502 -2.75862 -0.37644)
(97.2045 -2.73505 -0.376079)
(97.2671 -2.71627 -0.37879)
(97.3374 -2.70208 -0.384322)
(97.4141 -2.69184 -0.392551)
(97.4949 -2.68433 -0.403599)
(97.5941 -2.67697 -0.417509)
(100.001 0.0477272 0.00273461)
(100.004 0.0988631 0.00540762)
(100.01 0.159283 0.00824581)
(100.019 0.235911 0.0114284)
(100.033 0.337857 0.0150292)
(100.053 0.47856 0.0189908)
(100.086 0.679115 0.022957)
(100.146 0.974768 0.0258769)
(100.286 1.42695 0.0250952)
(100.332 1.83347 0.0228757)
(100.599 2.81084 0.00922887)
(102.394 5.33351 -0.0433215)
(111.022 4.03691 -0.095718)
(109.018 -6.64047 -0.104263)
(102.755 -6.74813 -0.146196)
(101.121 -4.90572 -0.225857)
(100.687 -3.87396 -0.293466)
(100.526 -3.2997 -0.337255)
(100.45 -2.96729 -0.362974)
(100.387 -2.78103 -0.378635)
(100.279 -2.62629 -0.440268)
(100.301 -2.28596 -0.635458)
(100.281 -2.18631 -0.635871)
(100.265 -2.13282 -0.632915)
(100.251 -2.10631 -0.631013)
(100.237 -2.09162 -0.630192)
(100.223 -2.08265 -0.629645)
(100.213 -2.07701 -0.629101)
(100.204 -2.0733 -0.628598)
(100.199 -2.07064 -0.628257)
(100.196 -2.06864 -0.628257)
(100.195 -2.06724 -0.628806)
(100.196 -2.06647 -0.630104)
(100.199 -2.06636 -0.632289)
(100.203 -2.06687 -0.63551)
(100.207 -2.0678 -0.639906)
(100.212 -2.06883 -0.645663)
(100.217 -2.06929 -0.65302)
(100.223 -2.06795 -0.66221)
(100.236 -2.062 -0.67298)
(100.003 0.0417663 0.00143995)
(100.012 0.0866529 0.00276245)
(100.031 0.13969 0.00390629)
(100.059 0.206832 0.00476933)
(100.103 0.295547 0.00507432)
(100.168 0.41586 0.00424739)
(100.269 0.581736 0.00117967)
(100.431 0.812317 -0.00618785)
(100.741 1.1316 -0.0217058)
(100.963 1.36806 -0.0325599)
(101.802 1.82001 -0.0701866)
(103.401 1.72443 -0.141008)
(105.173 -0.26389 -0.239196)
(104.717 -2.82974 -0.336839)
(102.938 -3.5505 -0.419579)
(101.734 -3.32109 -0.484306)
(101.117 -2.95941 -0.52684)
(100.792 -2.65365 -0.551043)
(100.609 -2.42353 -0.563937)
(100.489 -2.25255 -0.57039)
(100.404 -2.11481 -0.570654)
(100.311 -1.83168 -0.71856)
(100.28 -1.80008 -0.714298)
(100.258 -1.78037 -0.710811)
(100.243 -1.76973 -0.708609)
(100.231 -1.76338 -0.707242)
(100.221 -1.75853 -0.706228)
(100.213 -1.75401 -0.705354)
(100.206 -1.74913 -0.704553)
(100.201 -1.74343 -0.703814)
(100.198 -1.7367 -0.703175)
(100.197 -1.729 -0.702699)
(100.196 -1.7205 -0.702468)
(100.198 -1.71145 -0.702544)
(100.2 -1.70202 -0.703038)
(100.203 -1.69236 -0.704084)
(100.207 -1.68249 -0.705874)
(100.213 -1.67228 -0.708668)
(100.221 -1.66161 -0.712777)
(100.238 -1.65096 -0.718475)
(100.004 0.0323889 0.000393435)
(100.019 0.0671788 0.000561514)
(100.047 0.108164 0.000262211)
(100.091 0.159686 -0.000809461)
(100.157 0.226666 -0.00319303)
(100.253 0.314909 -0.00779892)
(100.395 0.430586 -0.016131)
(100.607 0.578042 -0.0306456)
(100.933 0.7534 -0.0552916)
(101.406 0.835879 -0.0954625)
(102.032 0.740461 -0.156569)
(102.695 0.222089 -0.242756)
(103.046 -0.744755 -0.346488)
(102.799 -1.55999 -0.456809)
(102.165 -1.85685 -0.550653)
(101.549 -1.85366 -0.617961)
(101.118 -1.76116 -0.660455)
(100.842 -1.65133 -0.685118)
(100.661 -1.54793 -0.698728)
(100.535 -1.45724 -0.705477)
(100.45 -1.38003 -0.707565)
(100.394 -1.31343 -0.706054)
(100.355 -1.2619 -0.704889)
(100.327 -1.22182 -0.704651)
(100.305 -1.19177 -0.704914)
(100.288 -1.16979 -0.705553)
(100.273 -1.15367 -0.706602)
(100.26 -1.14173 -0.708019)
(100.248 -1.13275 -0.70969)
(100.238 -1.1258 -0.711479)
(100.23 -1.12017 -0.713271)
(100.224 -1.11536 -0.714985)
(100.219 -1.11101 -0.716585)
(100.215 -1.10687 -0.718065)
(100.213 -1.10273 -0.719499)
(100.213 -1.09842 -0.721008)
(100.214 -1.09377 -0.722778)
(100.218 -1.08866 -0.725059)
(100.224 -1.08307 -0.728134)
(100.235 -1.07734 -0.732203)
(100.005 0.0204212 -0.000392781)
(100.023 0.0423129 -0.00107137)
(100.058 0.0680809 -0.00240056)
(100.112 0.10016 -0.00482036)
(100.191 0.141194 -0.0090653)
(100.304 0.193719 -0.016157)
(100.463 0.259181 -0.0276853)
(100.684 0.335184 -0.0459441)
(100.985 0.408928 -0.0740514)
(101.374 0.442029 -0.115751)
(101.825 0.379154 -0.174631)
(102.243 0.146795 -0.252216)
(102.459 -0.265736 -0.343651)
(102.343 -0.684457 -0.437169)
(101.961 -0.917642 -0.519574)
(101.515 -0.969476 -0.581845)
(101.15 -0.935788 -0.623737)
(100.89 -0.878434 -0.649955)
(100.705 -0.820122 -0.66572)
(100.571 -0.767471 -0.6747)
(100.473 -0.723412 -0.679206)
(100.402 -0.691054 -0.680941)
(100.351 -0.66984 -0.68185)
(100.313 -0.65701 -0.682676)
(100.284 -0.650473 -0.683566)
(100.263 -0.648497 -0.684616)
(100.246 -0.649415 -0.685884)
(100.232 -0.651888 -0.687324)
(100.221 -0.655018 -0.688816)
(100.212 -0.658214 -0.690223)
(100.205 -0.661065 -0.69143)
(100.199 -0.66333 -0.692357)
(100.195 -0.664871 -0.692966)
(100.192 -0.665653 -0.693268)
(100.191 -0.665636 -0.693374)
(100.191 -0.664882 -0.69338)
(100.193 -0.663435 -0.693456)
(100.197 -0.661366 -0.693863)
(100.204 -0.658787 -0.69494)
(100.22 -0.655878 -0.697131)
(100.006 0.00696429 -0.000838642)
(100.026 0.0144376 -0.00193642)
(100.063 0.0231995 -0.00384431)
(100.122 0.0340292 -0.00690736)
(100.207 0.0477541 -0.0121323)
(100.327 0.0650584 -0.0204229)
(100.491 0.0859596 -0.0333786)
(100.71 0.109016 -0.0531387)
(100.992 0.129076 -0.0825484)
(101.33 0.133959 -0.124208)
(101.692 0.10418 -0.180372)
(102.002 0.0197941 -0.251133)
(102.161 -0.115759 -0.332322)
(102.093 -0.255928 -0.415036)
(101.825 -0.343563 -0.488996)
(101.474 -0.369531 -0.547376)
(101.151 -0.362247 -0.588473)
(100.902 -0.345556 -0.615127)
(100.717 -0.328387 -0.631666)
(100.581 -0.312945 -0.641505)
(100.479 -0.300054 -0.647053)
(100.405 -0.290189 -0.650018)
(100.352 -0.282614 -0.651788)
(100.314 -0.276435 -0.65323)
(100.285 -0.271054 -0.65489)
(100.264 -0.26614 -0.656856)
(100.248 -0.261445 -0.659077)
(100.234 -0.25682 -0.661464)
(100.222 -0.252218 -0.663889)
(100.213 -0.247651 -0.666207)
(100.204 -0.243142 -0.668281)
(100.197 -0.238718 -0.670007)
(100.191 -0.234404 -0.671316)
(100.187 -0.230216 -0.672155)
(100.184 -0.226131 -0.672825)
(100.183 -0.22217 -0.673281)
(100.184 -0.218345 -0.673657)
(100.187 -0.214685 -0.674216)
(100.193 -0.21133 -0.6753)
(100.203 -0.208818 -0.677349)
(99.9942 0.0051505 0.0132391)
(99.9743 0.0103419 0.0274335)
(99.9377 0.0157649 0.0438645)
(99.8834 0.0214741 0.0640191)
(99.8102 0.0272337 0.0895078)
(99.716 0.0323231 0.122235)
(99.6002 0.0351921 0.164231)
(99.4651 0.033051 0.217735)
(99.3189 0.0214682 0.284728)
(99.1798 -0.00548087 0.366038)
(99.0777 -0.0531729 0.460633)
(99.0495 -0.119166 0.564335)
(99.1183 -0.18592 0.669498)
(99.2743 -0.235296 0.767466)
(99.4766 -0.25854 0.850575)
(99.6809 -0.265056 0.916266)
(99.8632 -0.262741 0.965598)
(100.017 -0.255573 1.00151)
(100.143 -0.246073 1.02716)
(100.242 -0.236437 1.04537)
(100.318 -0.227735 1.05844)
(100.375 -0.220165 1.06851)
(100.416 -0.213919 1.07737)
(100.445 -0.209533 1.08589)
(100.465 -0.206978 1.09426)
(100.481 -0.20584 1.10237)
(100.492 -0.205788 1.11006)
(100.5 -0.206562 1.11731)
(100.507 -0.207888 1.12412)
(100.513 -0.209507 1.13042)
(100.518 -0.211219 1.13614)
(100.523 -0.212887 1.1412)
(100.528 -0.21441 1.14561)
(100.533 -0.215731 1.14931)
(100.539 -0.216817 1.15223)
(100.546 -0.217692 1.15427)
(100.553 -0.218399 1.15531)
(100.562 -0.218992 1.15525)
(100.572 -0.219565 1.15389)
(100.589 -0.220305 1.15093)
(99.9944 0.0152966 0.0129247)
(99.975 0.0308189 0.026769)
(99.9388 0.0472133 0.0428537)
(99.8848 0.0647709 0.0626764)
(99.8107 0.0829883 0.0879085)
(99.7132 0.0999918 0.120602)
(99.5896 0.111467 0.163113)
(99.4394 0.109203 0.218139)
(99.2678 0.079423 0.288318)
(99.0915 0.0025241 0.375436)
(98.9484 -0.13769 0.478973)
(98.8997 -0.334696 0.595904)