/*--------------------------------*- C++ -*----------------------------------*\
| =========                 |                                                 |
| \\      /  F ield         | OpenFOAM: The Open Source CFD Toolbox           |
|  \\    /   O peration     | Version:  2306                                  |
|   \\  /    A nd           | Website:  www.openfoam.com                      |
|    \\/     M anipulation  |                                                 |
\*---------------------------------------------------------------------------*/
FoamFile
{
    version     2.0;
    format      ascii;
    arch        "LSB;label=32;scalar=64";
    class       volVectorField;
    location    "1.9";
    object      Force;
}
// * * * * * * * * * * * * * * * * * * * * * * * * * * * * * * * * * * * * * //

dimensions      [1 1 -2 0 0 0 0];

internalField   uniform (0 0 0);

boundaryField
{
    walls
    {
        type            calculated;
        value           uniform (0 0 0);
    }
    inlet
    {
        type            calculated;
        value           uniform (0 0 0);
    }
    outlet
    {
        type            calculated;
        value           uniform (0 0 0);
    }
    NASA
    {
        type            calculated;
        value           nonuniform List<vector> 
14179
(
(-0.0141193 -0.129915 6.04316e-06)
(-0.0125454 -0.10378 4.2032e-06)
(-0.0651872 -0.527378 0.000589323)
(-0.100562 -0.808901 0.00210279)
(-0.0637104 -0.515954 0.000303274)
(-0.109554 -0.881119 0.00234264)
(0.232128 1.00812 -0.00030549)
(0.111328 0.558891 -5.71881e-05)
(0.680784 3.33875 0.00404219)
(0.116868 0.586729 -6.32996e-05)
(0.00163173 0.00561248 -2.58686e-06)
(-0.0178294 -0.145889 0.000395125)
(0.130534 0.651955 -0.00155823)
(-0.035554 -0.323378 0.000995216)
(0.0618911 0.308866 -0.000714283)
(1.38153 0.931935 0.00282887)
(1.39525 0.924665 -0.00032656)
(0.0245408 0.138053 -4.50168e-05)
(0.162039 0.96143 -0.000117592)
(1.28828 0.853935 -0.00201032)
(-0.0166868 -0.233598 -8.55912e-06)
(-0.0206886 -0.192469 -0.000121454)
(-0.0190965 -0.265253 -0.000231973)
(-0.00821174 -0.0599021 2.47382e-06)
(-0.0127095 -0.105194 1.75863e-05)
(-0.00888208 -0.0647894 1.52311e-05)
(-0.0129916 -0.107017 0.00032458)
(-0.0151665 -0.108704 0.000341048)
(-0.0133834 -0.122251 0.000371263)
(-0.0157499 -0.216176 0.0037229)
(0.0476443 0.208078 1.89582e-05)
(0.0538028 0.253718 1.68237e-06)
(0.057842 0.272765 -8.09083e-05)
(0.0470102 0.204786 -2.0524e-05)
(0.0568847 0.208685 8.4008e-07)
(0.060822 0.222985 1.02568e-05)
(0.0285922 0.103747 3.18297e-07)
(0.0313278 0.113592 6.09423e-06)
(-0.00177581 -0.00861061 0.000142656)
(-0.0131173 -0.0638289 0.000663654)
(0.168347 0.614807 -0.0010974)
(0.0982908 0.354372 -0.00026276)
(0.108373 0.543903 -8.84652e-05)
(-0.00555782 -0.039181 3.01967e-06)
(-0.00508617 -0.0358413 -2.14076e-06)
(0.171814 0.862883 -0.000145557)
(-0.00979228 -0.0677772 0.000246836)
(0.0969643 0.484085 -0.000602064)
(0.0900802 0.45013 -0.000680339)
(0.109298 0.446577 -0.000354723)
(0.0856073 0.318244 -2.01467e-05)
(0.0852255 0.31682 -4.48792e-05)
(-0.068341 1.6682 -0.000172069)
(1.39112 0.924899 -0.000742)
(-0.0632188 1.55348 8.76568e-05)
(-0.00290045 1.43346 -0.000142652)
(0.0613437 0.927644 1.97152e-05)
(0.0681447 1.02875 -0.000148411)
(-0.00255006 1.25934 -4.5013e-06)
(0.0925534 0.363777 -2.02608e-05)
(0.170041 1.00804 -0.000144335)
(0.00812596 0.029597 3.34594e-05)
(-0.0229799 0.570533 -0.000777516)
(0.931745 0.635835 0.0776103)
(-0.000748348 0.536004 -0.00102588)
(0.0271796 0.412817 -0.000668119)
(0.12773 0.747613 0.00692442)
(-0.0142694 -0.142839 8.68995e-06)
(-0.0140635 -0.129482 1.13132e-05)
(-0.0988947 -0.795608 0.00206476)
(-0.011003 -0.0873399 4.20897e-06)
(-0.0125235 -0.103606 8.85409e-06)
(1.33255 0.882253 -0.00272903)
(1.28576 0.851539 -0.00241927)
(0.346087 2.05208 -0.0059174)
(0.26062 1.5398 -0.00399185)
(-0.111026 -0.89416 0.000896836)
(-0.0555572 -0.345869 0.000954947)
(-0.0548246 -0.343566 0.000962174)
(-0.0413322 -0.242609 0.000693833)
(0.156422 0.674836 -0.00186986)
(0.174946 0.756411 -0.00204829)
(0.768036 1.31866 -5.50231e-05)
(0.768469 1.31741 -0.000329674)
(0.110115 0.552714 -6.35065e-05)
(0.0990096 0.475706 -3.40935e-05)
(0.000206592 -0.00020925 -1.07386e-06)
(0.00197132 0.0105031 -3.19619e-07)
(0.00200764 0.0107115 -2.27681e-06)
(0.000213898 -0.000158186 7.09227e-08)
(0.116554 0.585184 -5.43075e-05)
(0.105752 0.545478 -4.66365e-05)
(-0.0200974 -0.164285 0.000468571)
(-0.0134375 -0.0963065 0.000293722)
(-0.0202706 -0.144778 0.000411915)
(-0.0122544 -0.0845191 0.000275078)
(-0.0180087 -0.123542 0.000309063)
(0.0855083 0.426676 -0.00118567)
(-0.0201136 -0.183019 0.000504923)
(-0.0247659 -0.340484 0.00116854)
(-0.0209683 -0.29458 0.000218828)
(0.0801867 0.400492 -0.00108434)
(1.37854 0.925822 -0.00269268)
(0.100981 0.595156 -7.41356e-05)
(0.110065 0.615546 -4.06203e-05)
(0.109754 0.613468 -7.96676e-05)
(0.173092 1.20466 -0.000129837)
(0.105105 0.62325 -5.78703e-05)
(0.164401 0.975019 -9.46838e-05)
(0.017589 0.0165979 1.8818e-05)
(0.346301 -0.127614 0.00347391)
(0.358497 -0.142131 0.00168895)
(0.0103607 0.00992573 -2.73704e-05)
(-0.00604545 -0.0260733 0.00014882)
(0.0227642 0.0839513 -0.000171079)
(0.00324056 0.0113646 4.34796e-05)
(0.0231363 0.093198 -8.87948e-05)
(-0.00897148 -0.0400931 0.000131137)
(-0.00109024 -0.00683527 0.000100153)
(0.00499556 0.0209768 -4.81546e-06)
(-0.0177894 -0.0860717 0.000241716)
(-0.00108036 0.732941 -0.00178907)
(0.0407639 0.608995 -0.00155647)
(-0.0015743 0.981677 -0.00245243)
(0.0318795 0.482732 -0.0015527)
(-0.0348351 0.870585 -0.00232707)
(1.11317 0.748832 -0.00208051)
(-0.0472059 1.1673 -0.0028865)
(0.109825 0.649965 -0.00268825)
(0.155932 0.610647 -0.00186835)
(0.117431 0.459264 -0.00116301)
(0.108085 0.394407 -0.000976837)
(0.152554 0.557369 -0.00139488)
(0.0628375 0.226732 -0.000559139)
(0.0856722 0.309648 -0.00084305)
(-0.0128849 -0.145237 6.67974e-07)
(-0.0165751 -0.23172 1.55794e-05)
(-0.0100481 -0.0774863 3.9464e-06)
(-0.00806767 -0.0588553 4.22387e-06)
(0.00046009 0.00100598 0.541441)
(-0.0130098 -0.102379 0.000316129)
(0.000431858 0.000962195 0.514884)
(-0.0144683 -0.110253 0.000349068)
(0.00073696 0.00123985 0.585773)
(-0.0131169 -0.130965 0.000464546)
(0.000977261 0.0016946 0.58676)
(-0.0122313 -0.140871 0.00129374)
(0.0535873 0.25269 -3.1354e-05)
(0.0398961 0.181463 -9.4838e-06)
(0.0402143 0.182931 -2.30379e-05)
(0.0472328 0.205719 -1.8577e-05)
(0.0465193 0.204915 -1.17291e-05)
(0.046758 0.205981 -2.36329e-05)
(0.0570143 0.20905 5.33377e-06)
(0.0246596 0.122674 -1.48089e-05)
(0.0221123 0.11222 -1.34371e-05)
(0.02914 0.105684 5.26386e-06)
(0.0252229 0.088749 -6.11645e-07)
(-0.00625502 -0.0286694 0.000238848)
(-0.00535215 -0.0255257 0.000265212)
(0.000350859 0.000764984 0.323917)
(0.000353347 0.000729877 0.317121)
(0.000344648 0.000715087 0.31352)
(0.000306752 0.000725615 0.359591)
(0.0924738 0.315112 1.05688e-05)
(0.158214 0.553218 0.00326194)
(-2.26744e-05 0.000779 0.337899)
(0.000274753 0.000275022 0.305118)
(0.00012152 0.000261484 0.108335)
(0.0809116 0.284039 -0.000186944)
(0.288547 0.67033 -6.02274e-06)
(0.169823 0.598719 5.70685e-05)
(0.168102 0.592693 -3.79785e-05)
(0.0853682 0.398722 -1.86473e-05)
(0.0860348 0.401878 -3.38506e-05)
(0.146072 0.697808 -4.04843e-05)
(0.0850597 0.378811 -2.91253e-05)
(0.0881853 0.400285 -1.41377e-05)
(0.0894184 0.405818 -3.31613e-05)
(0.0848822 0.378125 -7.8093e-06)
(-0.00403913 -0.0287951 1.13845e-06)
(-0.00548839 -0.0386955 1.70968e-06)
(0.157028 0.831888 -4.87953e-05)
(0.272826 0.47056 0.0109809)
(0.00085955 0.00344148 0.876716)
(0.000353629 0.00168895 0.418166)
(0.0498708 0.145086 -3.37357e-05)
(-0.0118081 -0.0736753 0.00031568)
(-0.0118823 -0.0750192 0.000462149)
(0.000844569 0.00186187 0.688191)
(0.000278112 0.00031787 0.313041)
(0.0961537 0.493554 0.000366993)
(0.00044878 0.000287712 0.377321)
(0.139966 0.735694 0.00443418)
(0.000487649 0.000941159 0.350614)
(0.000340599 0.000760249 0.333251)
(-0.000408793 0.000449393 0.356794)
(6.97291e-05 0.000369993 0.112992)
(0.0803042 0.383651 -0.000609999)
(0.102911 0.478123 0.000284194)
(0.000415291 0.000233485 0.207195)
(9.59716e-05 0.000467218 0.108243)
(0.168923 0.709943 0.000977939)
(0.0856247 0.318303 -2.58044e-05)
(0.0815812 0.312307 -2.5295e-05)
(0.0973775 0.396987 -4.03261e-05)
(0.0683243 0.275198 -1.15703e-05)
(-0.912962 2.91865 -0.0224026)
(-0.0648391 1.58824 -7.13945e-05)
(-0.19862 1.85638 0.000804213)
(0.0649698 0.98031 -8.07215e-05)
(0.0486824 1.04099 -5.59336e-05)
(-0.00265496 1.31654 -3.97199e-05)
(0.0294794 1.11319 -3.29024e-05)
(0.0946834 1.03877 -0.000103513)
(0.117531 1.51708 -0.000100756)
(0.120472 1.55423 -0.000107225)
(0.0925336 1.01581 -9.20343e-05)
(0.111261 1.13613 -0.000140556)
(0.118878 1.106 -3.7446e-05)
(0.123095 1.1453 -0.000170833)
(0.107807 1.10081 -4.22123e-05)
(0.070611 0.292617 -9.2645e-06)
(0.0621855 0.246776 -7.6127e-06)
(0.0928499 0.364862 -2.7427e-06)
(0.106788 0.723082 -0.000101999)
(0.111604 0.702686 -6.68891e-05)
(-0.000470176 0.000432599 0.576126)
(0.000768306 0.0027891 0.908376)
(0.00158174 0.00542786 0.00012566)
(0.000232893 0.00312742 0.751239)
(0.00275411 0.00965545 0.000118897)
(0.000373203 0.0101816 0.275885)
(-0.0612005 0.587156 -0.00136828)
(0.00735874 -0.00226617 1.75712)
(0.000308856 0.000629811 0.30567)
(0.0142232 0.520181 -0.00105423)
(0.000701199 0.000166198 0.246527)
(0.0233645 0.48922 -0.000861791)
(0.0616711 0.530676 -0.00105195)
(0.0613897 0.520697 -0.00100846)
(0.000330034 0.000514782 0.246077)
(0.000356973 0.000562976 0.270711)
(0.0578283 0.533611 -0.000952086)
(0.0525682 0.530412 -0.000656261)
(0.0475737 0.520812 0.000679551)
(2.05277e-05 -0.000534988 0.226624)
(-0.0193601 -0.106279 0.00123588)
(8.03783e-05 0.000940485 0.510245)
(0.0916724 0.50982 -0.000602845)
(0.000344825 0.000734227 0.323923)
(0.000347833 0.000738268 0.325254)
(0.480697 -0.1915 -0.00383902)
(0.223867 0.211674 0.00209405)
(0.000178909 0.0001309 0.0791352)
(-0.0521432 -0.512982 0.000960064)
(-0.0681373 -0.550639 0.0010378)
(-0.0554531 -0.54493 0.00125194)
(-0.0685522 -0.553938 0.00106379)
(-0.0747571 -0.603266 0.00139547)
(-0.0589854 -0.579107 0.00144344)
(-0.0826732 -0.666284 0.00167239)
(0.177429 0.767985 -0.00208783)
(0.446714 2.18759 -0.00574829)
(0.180954 0.783665 -0.0021234)
(0.426117 2.08615 -0.0054996)
(-0.0638937 -0.517301 0.000341834)
(-0.0411929 -0.257026 0.000689289)
(-0.104838 -0.843002 0.00220241)
(-0.046928 -0.292351 0.000787354)
(1.39441 0.924133 -0.000721251)
(1.39532 0.924698 -0.00034568)
(0.245918 1.06776 -0.000409659)
(0.661988 3.248 -0.00184575)
(0.612211 3.00366 -0.00113459)
(0.227455 0.98732 -0.000579355)
(0.436017 2.58492 -0.000955816)
(0.47047 2.78883 -0.00165836)
(0.00104132 0.00309995 -7.15163e-07)
(0.00158273 0.00582534 -1.96788e-06)
(0.0243488 0.138048 -8.44739e-05)
(0.0248703 0.140501 -5.58249e-05)
(0.0524141 0.227653 -0.000479058)
(0.0387488 0.176193 -0.000369369)
(0.0625768 0.272541 -0.000612362)
(0.0304508 0.137577 -0.000256399)
(-0.108737 -0.875155 0.00233111)
(-0.0689457 -0.501116 0.0013377)
(0.0203629 0.0963854 -0.000127576)
(-0.00938524 -0.0524791 0.000200928)
(0.06303 0.229852 -0.00063747)
(0.0709966 0.258871 -0.000694443)
(0.0342204 0.123363 -0.000343977)
(0.039637 0.142883 -0.000383745)
(0.306954 1.38898 -0.000455659)
(0.193827 0.840969 -7.88011e-05)
(0.340562 1.61057 -0.000573711)
(0.152232 0.763977 -0.000169314)
(-0.0182044 -0.153355 0.000175227)
(-0.0407904 -0.302805 0.000326517)
(-0.00664745 -0.0486457 -1.01695e-05)
(0.00237188 0.0094718 -5.76646e-06)
(-0.0165519 -0.113981 3.55309e-05)
(-0.0219296 -0.154303 8.33454e-05)
(0.0981541 0.401361 0.000127491)
(0.0848542 0.315469 -0.000100535)
(0.0850705 0.316253 -6.18244e-05)
(0.109728 0.45021 -0.000734156)
(0.167735 0.736842 -0.000233257)
(0.144255 0.664864 -7.88622e-05)
(0.175174 0.770118 -0.000240514)
(0.184758 0.861726 -9.23163e-05)
(-0.00305299 1.47637 -0.000154677)
(0.0697477 1.05099 -0.000342739)
(-0.0032781 1.54282 -0.000431644)
(0.0689873 1.04051 -0.000163343)
(-0.0696251 1.7005 -0.000183197)
(1.39321 0.9246 -0.000417527)
(-0.0718485 1.75508 -0.000480076)
(0.433577 3.71534 -0.00187613)
(0.100767 0.395952 -2.39447e-05)
(0.096898 0.380773 -8.63303e-05)
(0.067669 0.248115 -2.53648e-05)
(0.0632001 0.231724 3.04207e-06)
(0.0586487 0.307546 -0.000135654)
(0.188039 0.928308 -0.0011919)
(0.0236495 0.132166 -7.95144e-05)
(0.0492938 0.264665 -8.52492e-05)
(0.777182 4.86177 0.00206357)
(0.345663 2.30867 0.000349657)
(0.0357091 0.129489 -1.09438e-05)
(0.0326213 0.118293 5.40202e-06)
(1.27003 0.843786 -0.000933895)
(0.0902553 0.624977 -0.00166503)
(0.248773 0.233354 -0.000546944)
(0.498963 -0.206883 0.000186174)
(0.235693 0.221775 -0.000599319)
(0.517517 -0.214944 -7.22122e-05)
(0.0588036 0.215596 7.60706e-06)
(0.0272733 0.0958857 6.53639e-06)
(0.0302504 0.109702 7.63318e-06)
(0.288474 0.67017 -2.47747e-05)
(0.278655 0.817998 -8.96835e-05)
(0.000703806 0.00212465 0.741054)
(0.000272525 0.000984989 0.366315)
(0.000445127 0.000298909 0.3864)
(-0.208205 1.92974 -0.00021768)
(-0.0666873 1.62993 -7.94953e-05)
(1.3869 0.925461 -0.00143368)
(0.0269727 0.0254902 2.61229e-05)
(0.358877 -0.147495 0.000136336)
(0.361676 -0.14704 0.0005835)
(0.028996 0.0273687 1.77044e-05)
(0.000407382 0.000930677 0.553912)
(0.000321075 0.000465025 0.383992)
(0.000306191 0.000609693 0.344653)
(0.000503906 0.000968718 0.36926)
(-0.089874 -0.723681 0.001856)
(1.36989 0.907055 -0.00282138)
(1.35713 0.898579 -0.00278915)
(1.33068 0.881024 -0.00272616)
(1.35639 0.898081 -0.00278744)
(0.396363 1.93938 -0.00512456)
(0.174311 0.753866 -0.00204865)
(0.176131 0.762235 -0.00207259)
(0.418442 2.0484 -0.00540777)
(0.270014 1.59559 -0.00417211)
(0.288706 1.70636 -0.00442565)
(-0.0229465 -0.135832 0.000379901)
(-0.029722 -0.175036 0.000488055)
(-0.0543855 -0.33843 0.000924239)
(-0.0489663 -0.304906 0.00082399)
(-0.0394192 -0.231304 0.000652681)
(-0.0322673 -0.189763 0.000530229)
(0.253615 2.15797 -0.00552094)
(0.240745 2.04775 -0.00534335)
(0.0260223 0.0960727 -0.000206667)
(0.0245788 0.0993462 -0.00024619)
(0.0364138 0.148085 -0.000123135)
(0.0341419 0.12628 -0.000297285)
(0.00240133 0.00973644 4.72718e-05)
(0.0293839 0.125941 -0.000168333)
(0.0385178 0.16651 -0.000311471)
(0.0237465 0.105942 -0.000130589)
(0.0421649 0.156134 -0.000383675)
(0.0465951 0.190024 -0.000203255)
(0.0364399 0.134832 -0.00032248)
(0.0426095 0.636293 -0.00161308)
(-0.00165922 1.02488 -0.00255993)
(-0.00185241 1.12947 -0.00281874)
(0.0468999 0.700621 -0.00178064)
(-0.0546171 1.34936 -0.00334314)
(1.31963 0.873676 -0.00269437)
(-0.0571046 1.41046 -0.00349743)
(-0.0490431 1.21243 -0.00300178)
(-0.0534139 1.31983 -0.00326986)
(1.31699 0.871919 -0.0026894)
(-0.0019069 1.15782 -0.00288911)
(0.0512182 0.766246 -0.00193994)
(-0.0020149 1.21429 -0.00303186)
(0.048209 0.720665 -0.00180294)
(0.226504 1.33844 -0.00337017)
(0.411404 2.56028 -0.00872333)
(0.23719 1.58 -0.00411863)
(0.246998 1.45867 -0.00386759)
(0.405177 2.52713 -0.00652183)
(0.37753 2.35375 -0.00621325)
(0.195458 1.29982 -0.00441833)
(-0.080827 -0.593553 0.00117593)
(-0.101889 -0.820292 0.00221407)
(-0.0658899 -0.437537 0.00118422)
(-0.0557843 -0.347755 0.000981347)
(-0.0792244 -0.531514 0.00135135)
(-0.0521369 -0.325861 0.000944685)
(-0.0224944 -0.125429 0.00039252)
(-0.043206 -0.254012 0.000752238)
(0.00689578 0.027696 0.000186947)
(-0.0458292 -0.270706 0.000799196)
(0.230687 1.03669 -0.00292134)
(0.178805 0.772655 -0.00206863)
(0.237023 1.11702 -0.00297319)
(0.176558 0.763187 -0.00205363)
(0.224066 1.01028 -0.00270912)
(0.241093 1.13521 -0.00338678)
(0.367276 1.79518 -0.00489334)
(0.105281 0.411663 -0.00105592)
(0.0888458 0.347317 -0.000922967)
(0.094942 0.346347 -0.000875995)
(0.0747248 0.272472 -0.000721032)
(0.0862285 0.337116 -0.000909565)
(0.0801847 0.313552 -0.000862061)
(0.0550888 0.198709 -0.000499589)
(0.0421772 0.152044 -0.000402208)
(0.126847 0.294046 -0.000716508)
(0.107979 0.250198 -0.000572052)
(-0.0206813 -0.156776 0.000455054)
(-0.018081 -0.129361 0.000382313)
(0.0811548 0.41486 -0.00138906)
(0.0857039 0.427841 -0.00110824)
(0.124047 0.654937 -0.00234492)
(-0.0193028 -0.190818 0.000458372)
(-0.0198997 -0.181479 0.000509802)
(-0.0172228 -0.189573 0.000208907)
(-0.0212824 -0.295266 0.000744764)
(0.0770144 0.368654 -0.00111212)
(0.0815919 0.407366 -0.00104436)
(-0.00364654 -0.0155138 9.65241e-05)
(0.00667932 0.0259006 4.77296e-05)
(-1.79066e-05 -0.000863025 7.40127e-05)
(0.0136249 0.0499545 -5.63832e-05)
(0.0176579 0.6485 -0.00160792)
(-0.00129856 0.846573 -0.00212444)
(0.0269243 0.568124 -0.00148571)
(0.0361178 0.540732 -0.00145408)
(-0.10587 1.00662 -0.00391649)
(-0.0411755 1.02098 -0.0025839)
(1.23387 0.82405 0.000627518)
(-0.464922 1.51309 -0.00336761)
(-0.045058 1.11512 -0.00277645)
(-0.141508 1.31704 -0.00319308)
(-0.0115905 -0.0606153 0.000221729)
(-0.00831351 -0.0428501 0.000168897)
(-0.0101276 -0.0519338 0.000198571)
(-0.00973654 -0.0511339 0.000192396)
(-0.0247351 -0.135808 0.000292418)
(0.000760191 0.00125828 0.392186)
(0.0584495 0.393313 -0.001036)
(0.0922885 0.639188 -0.00179415)
(0.0605425 0.407115 -0.00113433)
(0.126197 0.460655 -0.0011236)
(0.153063 0.559003 -0.00137219)
(0.0726999 0.262406 -0.000636135)
(0.0614668 0.215057 -0.000529348)
(0.080766 0.283103 -0.0008759)
(0.0886915 0.320324 -0.000797037)
(0.446044 -0.186394 -0.0025895)
(0.212572 0.195219 0.000386228)
(0.259304 0.241197 -0.00036824)
(0.520615 -0.217191 -0.000895415)
(0.228872 0.992343 -0.00261382)
(0.572544 2.80624 -0.00720861)
(0.230847 1.00097 -0.00258586)
(0.552135 2.70608 -0.00700404)
(-0.06464 -0.523099 0.000487181)
(-0.000132489 -0.00408998 6.51887e-06)
(0.000292882 -0.00146864 3.06014e-06)
(0.239373 1.03892 -0.000968885)
(0.631544 3.09797 -0.00350468)
(0.217625 0.944534 -0.00108501)
(-0.06089 -0.442765 0.0011572)
(0.180016 0.791743 -0.000438653)
(0.146743 0.677387 -0.000427939)
(0.180329 0.793157 -0.000504802)
(0.146582 0.676588 -0.000377132)
(0.0661569 0.242438 -0.000133488)
(0.0723053 0.26488 -0.000141284)
(-0.0317675 -0.233275 0.000139983)
(0.166719 0.825384 -0.000518002)
(0.066026 0.347363 -0.000216589)
(0.0326994 0.118502 -6.54204e-05)
(0.0360174 0.130479 -7.22126e-05)
(1.39492 0.924549 -0.000304825)
(0.0294287 0.0276676 5.89544e-06)
(0.33733 -0.139988 4.45379e-06)
(0.0296495 0.0278691 3.81261e-08)
(0.340527 -0.141254 4.00315e-07)
(-0.0201709 -0.12755 0.000333036)
(-0.022627 -0.14268 0.000375209)
(-0.0391301 -0.244321 0.00065443)
(-0.0947858 -0.762847 0.0019701)
(-0.0341479 -0.213639 0.00056986)
(0.182845 0.792019 -0.00214483)
(0.194507 0.843265 -0.0022688)
(0.105591 0.462271 -0.00115125)
(0.0795187 0.365146 -0.000906082)
(0.109118 0.477825 -0.00119397)
(0.0761786 0.349677 -0.000862904)
(0.0458427 0.20917 -0.000468691)
(0.0712427 0.310794 -0.000722227)
(0.078168 0.341347 -0.000810755)
(0.0517449 0.23655 -0.000549056)
(0.0573896 0.209957 -0.000612983)
(0.0558501 0.204189 -0.000595621)
(0.0612635 0.223437 -0.00062516)
(0.0574828 0.209744 -0.000598372)
(0.0156855 0.0804722 -0.000178267)
(0.0715028 0.351037 -0.000852534)
(-0.0684135 -0.497113 0.00132102)
(0.0280751 0.134991 -0.000247219)
(-0.00554732 -0.0319873 0.000137036)
(0.0352636 0.170856 -0.000353289)
(0.0311467 0.112696 -0.000334708)
(0.0298187 0.107807 -0.000320099)
(0.0330106 0.119014 -0.000335381)
(0.0304673 0.109897 -0.000317314)
(1.33145 0.881519 -0.00272418)
(1.2998 0.860572 -0.00258076)
(0.128433 0.120986 -0.000361918)
(0.359242 -0.149154 0.000238592)
(0.370281 -0.153736 0.000247641)
(0.116415 0.109654 -0.000331823)
(0.477725 -0.198104 0.000266806)
(0.219444 0.206686 -0.00058395)
(0.205256 0.193388 -0.000553213)
(0.457749 -0.189927 0.000270903)
(3.45717e-05 -0.0162824 1.91801e-05)
(0.0001177 -0.0101143 1.57299e-05)
(-0.0514561 -0.506424 0.000801474)
(-6.23758e-06 -0.0192533 3.76014e-05)
(-2.4276e-05 -0.0205905 3.23323e-05)
(-0.0666493 -0.538871 0.000859441)
(-0.0539862 -0.530759 0.00113849)
(-0.000112747 -0.0270184 6.47332e-05)
(-0.000132148 -0.028474 6.31291e-05)
(-0.0711836 -0.574846 0.00122759)
(-0.0717031 -0.578978 0.00125059)
(-4.76473e-05 -0.0221618 5.97441e-05)
(-0.057778 -0.567433 0.00137777)
(-0.000265332 -0.038196 9.59818e-05)
(-0.0794982 -0.641005 0.00156707)
(1.38593 0.917777 -0.0028298)
(1.38404 0.916507 -0.00283917)
(1.38173 0.914954 -0.00284408)
(1.38598 0.91779 -0.00284409)
(0.205743 0.892362 -0.00235744)
(0.522358 2.56018 -0.0066674)
(0.541817 2.65562 -0.00687659)
(0.188084 0.815663 -0.00217217)
(0.17825 0.771674 -0.00209513)
(0.235156 1.06126 -0.0028445)
(0.266173 1.25576 -0.00332256)
(0.440144 2.15523 -0.0056685)
(0.179708 0.778122 -0.00211012)
(0.24242 1.09446 -0.0029234)
(0.255597 1.20551 -0.00320045)
(0.432654 2.11835 -0.00558451)
(1.38605 0.918513 -0.00137694)
(1.38838 0.920109 -0.001112)
(1.39238 0.922779 -0.000774407)
(1.39074 0.921674 -0.00107164)
(0.461104 2.73346 -0.0018633)
(0.452127 2.68019 -0.00245957)
(0.000869451 0.00207325 -2.47318e-07)
(-0.0643941 -0.521171 0.000450052)
(0.000512995 -0.000111952 1.69393e-06)
(0.0231646 0.131199 -0.000148656)
(0.0236059 0.133766 -0.000126968)
(0.0241723 0.137054 -9.34211e-05)
(0.02385 0.135185 -0.000119462)
(0.214736 0.932084 -0.000601109)
(0.240392 1.04347 -0.000874684)
(0.701092 3.43991 -0.00304128)
(-0.0547712 -0.364023 0.000960959)
(-0.0429984 -0.268148 0.000719801)
(-0.0644534 -0.468453 0.00123063)
(-0.0450429 -0.280739 0.000754855)
(-0.0594866 -0.395052 0.00104849)
(0.43923 3.75878 -0.0020787)
(0.429174 3.67048 -0.00165016)
(0.0847681 0.315149 -0.000114934)
(0.109755 0.450352 0.000409334)
(0.109805 0.450575 -0.000803992)
(0.0846204 0.314612 -0.0001543)
(0.143151 0.660073 -0.000304001)
(0.178681 0.785713 -0.000309863)
(0.179807 0.790776 -0.000376985)
(0.14622 0.67475 -0.000326139)
(0.109734 0.450282 0.000334067)
(0.0843991 0.313801 -0.00020619)
(0.109617 0.449803 -0.000875921)
(0.0845367 0.314306 -0.000168875)
(0.0696311 1.04997 -0.000361421)
(-0.00328983 1.54527 -0.000500334)
(-0.00319732 1.49238 -0.000704637)
(0.0701376 1.05786 -0.000526853)
(-0.0684653 1.6713 -0.000841786)
(1.39484 0.924408 -0.000573484)
(-0.060099 1.467 -0.000932847)
(-0.0719747 1.75791 -0.000560137)
(-0.0700878 1.71108 -0.000781376)
(1.39569 0.924964 -0.000508432)
(-0.00310517 1.44598 -0.0007477)
(0.0667693 1.00974 -0.000619827)
(-0.00259509 1.18848 -0.000785815)
(0.0700095 1.05631 -0.000570979)
(0.328614 1.48703 -0.000543874)
(0.247503 1.07439 -0.000473906)
(0.643213 3.15592 -0.00152972)
(0.374885 1.77257 -0.00101545)
(0.352691 1.66792 -0.000576803)
(0.629789 3.08995 -0.00136858)
(0.237434 1.03067 -0.000541018)
(0.325511 1.47264 -0.00084702)
(0.0905394 0.355799 -0.000113123)
(0.0772371 0.303274 -0.000151488)
(0.0700658 0.256918 -3.54747e-05)
(0.0752308 0.275704 -0.000134241)
(0.0763409 0.299695 -0.000166141)
(0.684974 4.2846 -0.00193326)
(0.456448 2.70561 -0.00120823)
(0.696977 4.36086 -0.00196681)
(0.40736 2.72381 -0.00146938)
(0.412956 2.76062 -0.00124858)
(0.463975 2.75044 -0.00136859)
(-0.0298636 -0.220023 9.01063e-05)
(-0.0180139 -0.122359 7.51153e-05)
(0.00117584 0.00384712 -1.22466e-06)
(-0.0171691 -0.117419 4.89661e-05)
(0.00128838 0.00435815 -1.08323e-06)
(0.0653411 0.343224 -0.000134439)
(0.164473 0.813403 -0.000319819)
(0.166871 0.825813 -0.000393482)
(0.0503923 0.271678 -0.000168299)
(0.0244458 0.138537 -7.50123e-05)
(0.0504619 0.271536 -0.000108867)
(0.0245574 0.139015 -6.46445e-05)
(0.03683 0.133565 -1.63842e-05)
(0.0387631 0.140495 -7.19711e-05)
(0.0652154 0.237805 -0.000653503)
(0.0676773 0.246765 -0.000670766)
(0.0315604 0.110307 -0.000308645)
(0.03571 0.128727 -0.000354993)
(0.037452 0.130903 -0.000350877)
(0.0373958 0.134798 -0.000367054)
(0.278105 0.816498 -0.000247949)
(0.278524 0.817635 -0.00015669)
(0.288812 0.671063 -0.00016211)
(0.28882 0.671064 -0.000139095)
(-0.210485 1.95054 -0.000256717)
(-0.0706147 1.72582 -0.000324494)
(1.39409 0.924368 -0.000324991)
(-0.907467 2.95117 -0.000684569)
(-0.0713942 1.74444 -0.000404894)
(-0.214829 1.98944 -0.000521882)
(0.0662601 0.242958 -1.31577e-05)
(0.0648238 0.237679 -3.61014e-06)
(0.0346905 0.125799 -3.15746e-06)
(0.0310984 0.109342 -7.40737e-06)
(0.0283256 0.0995858 7.01286e-06)
(0.0335867 0.121789 1.93995e-06)
(0.409448 2.42312 -0.00623276)
(0.386464 2.28685 -0.00592851)
(0.00102695 0.00289709 5.73737e-06)
(-0.00174404 -0.0131425 4.82744e-05)
(-0.0268947 -0.168965 0.000447726)
(-0.0237375 -0.149521 0.000393787)
(-0.00656323 -0.0410327 0.000122987)
(-0.00300791 -0.0204583 6.75053e-05)
(1.36842 0.906088 -0.00281866)
(1.37718 0.911906 -0.00283723)
(1.38291 0.915726 -0.0028468)
(1.37787 0.912368 -0.00283832)
(-0.0205156 -0.121767 0.000341658)
(-0.0148014 -0.0887047 0.000251405)
(0.351045 2.07626 -0.00536665)
(0.37678 2.22931 -0.0057818)
(-0.0933144 -0.751115 0.00193652)
(-0.0283286 -0.177797 0.000471665)
(-0.0323968 -0.202854 0.000540486)
(-0.00820207 -0.0505166 0.000148232)
(-0.0127806 -0.0770122 0.000219916)
(0.19662 0.852478 -0.00227633)
(0.51373 2.51782 -0.00658292)
(0.188623 0.817928 -0.00217894)
(0.477876 2.34139 -0.00615477)
(0.283021 2.40906 -0.00618048)
(0.291303 2.47995 -0.00637275)
(0.0671511 0.274563 -0.000335066)
(0.0543337 0.201421 -0.000510768)
(0.0571392 0.211861 -0.000539647)
(0.0632558 0.258543 -0.000972657)
(0.100652 0.440493 -0.00109082)
(0.0676522 0.310208 -0.00075482)
(0.0962705 0.42118 -0.00103616)
(0.0716924 0.328906 -0.000807065)
(0.060401 0.224001 -0.00057307)
(0.0580733 0.215337 -0.00054949)
(0.0719057 0.294121 -0.000364079)
(-0.00232871 1.375 -0.00343533)
(0.0574631 0.860195 -0.0021751)
(0.0587515 0.87959 -0.00222344)
(-0.00227606 1.34851 -0.00336853)
(-0.0642878 1.58674 -0.00393838)
(1.36683 0.905013 -0.00281196)
(-0.0650049 1.60423 -0.00398343)
(-0.00234729 1.3841 -0.0034572)
(0.0602072 0.901537 -0.00227823)
(-0.00237797 1.39727 -0.00349116)
(0.0591751 0.885973 -0.00223941)
(-0.0638616 1.57629 -0.00391318)
(1.36421 0.903277 -0.00280584)
(-0.0626842 1.54742 -0.00384032)
(0.317068 2.70005 -0.00690153)
(0.311224 2.65007 -0.00677905)
(0.0439833 0.162902 -0.000403038)
(0.0482861 0.178916 -0.000447942)
(0.0567675 0.231861 -0.000863577)
(0.053128 0.196934 -0.00049837)
(0.0614393 0.251073 -0.000299963)
(0.0497395 0.184323 -0.000462957)
(0.0848634 0.370875 -0.000895651)
(0.0622592 0.285245 -0.00068618)
(0.0900752 0.393863 -0.00096068)
(0.057534 0.263366 -0.000624496)
(-0.0577827 1.42705 -0.00353986)
(-0.0600402 1.48257 -0.00367648)
(1.34442 0.890135 -0.00275734)
(0.0520533 0.77884 -0.00197221)
(-0.00204879 1.2303 -0.00307301)
(-0.00215139 1.28542 -0.00320914)
(0.0543802 0.813801 -0.00205926)
(-0.00218267 1.30158 -0.00324985)
(0.056911 0.851862 -0.00215477)
(0.0551731 0.825724 -0.00208848)
(-0.00225182 1.33711 -0.00334084)
(-0.0607125 1.49907 -0.00371797)
(1.34977 0.893683 -0.00276895)
(-0.0622078 1.53577 -0.00381223)
(0.0747709 0.29291 -0.000824226)
(0.0749854 0.293614 -0.000826098)
(0.0551945 0.201607 -0.000585677)
(0.0554716 0.20276 -0.000591264)
(0.0750234 0.294079 -0.000826661)
(0.239885 1.1308 -0.00301404)
(0.403405 1.97421 -0.00524448)
(0.225149 1.01539 -0.00272738)
(0.17426 0.753821 -0.00205684)
(0.17527 0.758363 -0.00206583)
(0.232248 1.04798 -0.00281138)
(0.411471 2.01404 -0.00531809)
(0.251434 1.18574 -0.00315271)
(0.0763461 0.298702 -0.000834313)
(0.0759545 0.297219 -0.000832056)
(0.0749875 0.293574 -0.0008255)
(0.055237 0.201716 -0.000584843)
(0.0567035 0.20694 -0.000593368)
(0.263151 1.7532 -0.0045373)
(0.419893 2.61936 -0.0068)
(0.276198 1.63219 -0.00424582)
(0.282734 1.67095 -0.00434431)
(0.450275 2.80935 -0.00726595)
(0.440555 2.74865 -0.00711755)
(0.269789 1.79756 -0.00463818)
(-0.000125409 -0.00342543 3.94787e-05)
(-0.0250264 -0.147869 0.000412681)
(0.0552288 0.27016 -0.000631308)
(0.00765813 0.0380099 -6.20295e-05)
(-0.0274805 -0.162068 0.000451866)
(-0.00773639 -0.0448088 0.000153265)
(-0.065088 -0.43205 0.00116171)
(-0.0526346 -0.327549 0.000890878)
(-0.0656194 -0.47685 0.00125643)
(-0.0508449 -0.316487 0.000856452)
(-0.0610857 -0.405583 0.0010799)
(0.461497 2.87956 -0.00743996)
(0.470846 2.93807 -0.00758259)
(0.293292 1.9547 -0.0050243)
(0.287308 1.9147 -0.00492557)
(-0.0196037 -0.109493 0.000339175)
(-0.0370253 -0.21735 0.000609265)
(0.0485507 0.236967 -0.000539209)
(0.00434431 0.0204782 -1.37076e-05)
(0.0423323 0.206041 -0.000454048)
(-0.0346129 -0.203351 0.000567935)
(-0.0107644 -0.061276 0.000199025)
(0.0290677 0.104977 -0.000310183)
(0.0294794 0.106551 -0.000316276)
(0.0290688 0.104952 -0.000309303)
(0.0299487 0.108049 -0.000313977)
(0.122294 0.358086 -0.000877075)
(0.148433 0.434837 -0.00109992)
(0.19693 0.456827 -0.00120308)
(0.19167 0.444615 -0.00116897)
(0.164114 0.380641 -0.000988861)
(0.172349 0.399769 -0.00104647)
(0.155467 0.455496 -0.00115928)
(-0.611781 1.99255 -0.00471271)
(1.32643 0.878186 -0.00270918)
(-0.0563765 1.39259 -0.00345195)
(-0.169537 1.57698 -0.00386591)
(-0.584241 1.90303 -0.0045625)
(-0.513773 1.6729 -0.00385959)
(-0.532104 1.73294 -0.00410441)
(-0.146741 1.36567 -0.00334369)
(-0.0505521 1.24952 -0.00309171)
(1.31006 0.86731 -0.00264954)
(-0.566935 1.8468 -0.00437333)
(0.0869214 0.317012 -0.000809737)
(0.0799706 0.291641 -0.000761634)
(0.141809 0.133599 -0.000395344)
(0.399786 -0.165989 0.000270818)
(0.384219 -0.159523 0.000258875)
(0.15568 0.146679 -0.000428068)
(0.0536948 0.187806 -0.000469207)
(0.0501103 0.180696 -0.000459241)
(0.0455625 0.164272 -0.000427828)
(0.0402024 0.140524 -0.000370195)
(0.186663 0.175887 -0.000506067)
(0.417743 -0.173435 0.000273799)
(0.435871 -0.180924 0.000277951)
(0.171482 0.16158 -0.00046574)
(0.637538 3.12738 -0.00367759)
(0.203087 0.881558 -0.00106093)
(0.214964 0.932737 -0.00124563)
(0.645302 3.16536 -0.00431707)
(0.225417 0.977836 -0.00196482)
(0.646752 3.17094 -0.00618371)
(0.227153 0.985191 -0.00196041)
(0.639822 3.13745 -0.00635454)
(0.236871 1.02754 -0.00246424)
(0.639239 3.13373 -0.00727107)
(0.217955 0.945395 -0.002248)
(0.620957 3.0445 -0.00732606)
(-0.0650415 -0.526245 0.000556475)
(-0.0327584 -0.240253 0.000271505)
(-0.0469545 -0.342323 0.000866319)
(-0.0595492 -0.4331 0.00113005)
(-0.0975372 -0.784785 0.00203282)
(-0.0517891 -0.509593 0.000894615)
(-0.00518577 -0.157126 0.000292829)
(-0.00514865 -0.1561 0.000267624)
(0.000151511 -0.00763122 1.64346e-05)
(0.000128271 -0.00934463 1.52218e-05)