/*--------------------------------*- C++ -*----------------------------------*\
| =========                 |                                                 |
| \\      /  F ield         | OpenFOAM: The Open Source CFD Toolbox           |
|  \\    /   O peration     | Version:  2306                                  |
|   \\  /    A nd           | Website:  www.openfoam.com                      |
|    \\/     M anipulation  |                                                 |
\*---------------------------------------------------------------------------*/
FoamFile
{
    version     2.0;
    format      ascii;
    arch        "LSB;label=32;scalar=64";
    class       volScalarField;
    location    "1.9";
    object      p;
}
// * * * * * * * * * * * * * * * * * * * * * * * * * * * * * * * * * * * * * //

dimensions      [0 2 -2 0 0 0 0];

internalField   nonuniform List<scalar> 
111542
(
61.92
63.2137
66.321
71.4149
78.567
87.9803
99.8101
114.09
130.341
147.168
162.046
170.994
169.951
157.641
137.017
113.756
91.9152
73.1167
57.5714
45.1169
35.3159
27.7997
22.1597
17.8873
14.6504
12.1716
10.1697
8.61176
7.44805
6.55155
5.8398
5.25712
4.81603
4.44588
4.09434
3.71842
3.26323
2.72188
1.99114
0.976825
60.744
61.9949
65.067
70.0974
77.2385
86.7978
99.1429
114.529
132.805
152.93
172.265
185.28
184.352
168.075
142.091
114.999
91.098
71.2376
55.2603
42.7583
33.193
25.9789
20.5839
16.63
13.6716
11.3752
9.57038
8.17493
7.1013
6.2573
5.58001
5.03043
4.58451
4.2022
3.84328
3.46893
3.0344
2.49279
1.77205
0.814384
58.4187
59.5993
62.5253
67.3697
74.3948
84.1012
97.1968
114.495
136.677
163.619
192.046
213.45
213.593
188.233
151.864
118.214
90.4202
68.4221
51.5563
38.9098
29.6073
22.9943
18.2538
14.8121
12.0157
9.73129
7.99818
6.73175
5.79372
5.0829
4.53931
4.12178
3.79554
3.52729
3.28167
3.02108
2.69977
2.25893
1.62172
0.705923
55.0124
56.0639
58.6929
63.1198
69.7192
79.2092
92.7357
112.005
139.449
178.364
213.454
256.287
262.245
221.586
169.118
127.923
94.2589
68.7693
50.2475
36.9109
23.4272
17.1701
14.64
13.2022
11.2275
9.19096
7.56799
6.34451
5.38582
4.61732
4.00611
3.5239
3.14203
2.83063
2.56095
2.30051
2.00303
1.60336
1.00219
0.0714244
50.6571
51.4996
53.6295
57.2849
62.8955
71.2978
83.9343
103.236
133.255
178.043
255.091
341.792
366.528
259.207
174.015
123.909
83.5811
56.5735
38.9594
27.7668
20.5375
6.07486
5.46684
6.07191
5.39445
4.53949
3.94386
3.50941
3.14407
2.83511
2.58471
2.38499
2.22602
2.09452
1.97904
1.86288
1.7138
1.47427
1.01858
0.0388421
45.575
46.1213
47.5279
49.9936
53.8878
59.939
69.476
84.9584
111.167
165.865
259.651
455.119
622.619
251.754
177.671
115.294
67.0815
40.5024
25.0132
15.7779
12.2266
11.0974
11.3065
7.43738
4.57672
3.19779
2.45902
1.90934
1.46947
1.14273
0.913022
0.754538
0.64806
0.580502
0.541893
0.521329
0.505594
0.48302
0.463212
0.587875
40.0872
40.2634
40.7611
41.6778
43.1903
45.6355
49.5996
56.071
66.7437
106.04
181.429
409.442
1958.9
-410.82
216.297
77.2
30.3065
15.3788
7.37208
-1.75236
-5.69914
16.1188
15.2633
9.5777
6.12391
4.67473
3.9345
3.36883
2.90963
2.56213
2.30406
2.10616
1.95125
1.82865
1.73225
1.65657
1.58839
1.51933
1.44146
1.3728
34.6048
34.3764
33.8844
33.0935
31.9337
30.2356
27.601
23.0856
14.2862
16.39
-1.21597
-166.059
-1010.8
-1052.03
-315.083
-102.866
-47.4093
-26.7356
-17.3201
-10.85
-3.73813
-7.92767
-6.11399
-4.48908
-3.52207
-2.55455
-1.6495
-0.943496
-0.416605
-0.0049767
0.329528
0.604598
0.832398
1.02137
1.17639
1.29619
1.36426
1.34647
1.16873
0.685325
29.5181
28.955
27.5337
25.1405
21.5171
16.1139
7.91679
-4.96515
-26.1688
-49.5016
-123.478
-269.004
-480.199
-508.822
-322.726
-176.935
-101.729
-62.0127
-39.7289
-25.5999
-15.4848
-8.54508
-4.38219
-1.45887
0.292722
1.36851
2.10917
2.61507
2.93646
3.12944
3.23842
3.29019
3.29977
3.27471
3.21519
3.11371
2.94458
2.65555
2.14407
1.20525
25.329
24.4497
22.267
18.5931
13.0596
4.95282
-6.92299
-24.5339
-51.1685
-92.4595
-150.401
-223.512
-289.394
-297.843
-240.182
-166.716
-110.959
-75.0616
-51.7661
-35.6342
-24.1904
-16.5411
-11.4342
-7.8353
-5.29784
-3.49213
-2.14503
-1.11166
-0.319061
0.289639
0.762699
1.13448
1.42546
1.64573
1.79445
1.8637
1.82788
1.64043
1.23505
0.556471
22.3281
21.2318
18.5282
13.9959
7.2235
-2.49192
-16.2441
-35.5188
-62.1867
-98.1379
-143.402
-192.831
-231.663
-238.982
-208.543
-159.471
-114.699
-81.9297
-58.9014
-42.1376
-29.6852
-20.5687
-13.9063
-9.04044
-5.49868
-2.93077
-1.05917
0.311584
1.31047
2.03024
2.54236
2.89929
3.13577
3.27083
3.30295
3.24125
3.05985
2.70861
2.11051
1.13003
20.7641
19.5713
16.5886
11.6476
4.26735
-6.16265
-20.6479
-40.3253
-66.3571
-99.1255
-137.181
-175.167
-203.115
-209.366
-189.649
-153.473
-115.695
-84.9455
-62.0766
-45.0272
-32.1638
-22.5609
-15.526
-10.424
-6.7732
-4.14619
-2.24026
-0.84635
0.178408
0.93308
1.48917
1.89732
2.19203
2.39665
2.45605
2.44376
2.31548
2.01739
1.49557
0.693856
61.4583
62.696
65.7333
70.6713
77.5924
86.6879
98.1407
111.936
127.596
143.819
158.163
166.755
165.596
153.572
133.5
110.835
89.5771
71.2626
56.1307
43.9987
34.4936
27.1857
21.6535
17.493
14.3316
11.869
9.91854
8.40154
7.24476
6.35625
5.66318
5.11643
4.68525
4.32502
3.99252
3.64661
3.2418
2.72861
2.02516
1.02655
60.29
61.4969
64.4777
69.3521
76.2639
85.5084
97.4423
112.303
129.947
149.391
168.084
180.76
179.586
163.662
138.37
112.014
88.7459
69.4037
53.8604
41.7127
32.423
25.3892
20.1095
16.2445
13.3496
11.0907
9.31621
7.94262
6.88267
6.05338
5.39532
4.86863
4.44226
4.08071
3.74826
3.40702
3.01385
2.51338
1.8321
0.888238
57.9843
59.1209
61.9517
66.6404
73.4346
82.8154
95.468
112.183
133.632
159.718
187.26
207.936
208.179
183.412
147.974
115.221
88.1114
66.6497
50.2356
37.965
28.9482
22.5027
17.8522
14.4459
11.6799
9.43795
7.7509
6.52711
5.62613
4.94714
4.43152
4.03867
3.73446
3.48687
3.2646
3.0326
2.74819
2.3501
1.75037
0.824464
54.6083
55.6163
58.1531
62.4295
68.8025
77.9657
91.0331
109.673
136.279
174.124
209.686
251.723
257.485
217.177
165.788
125.467
92.3792
67.3104
49.1424
36.101
22.6046
16.5439
14.1989
12.7828
10.77
8.72187
7.11934
5.93397
5.02125
4.30158
3.739
3.30249
2.96347
2.69327
2.46607
2.25304
2.01345
1.68104
1.1421
0.201631
50.2948
51.0964
53.1435
56.664
62.0696
70.1713
82.3773
101.076
130.277
175.07
251.092
336.799
360.72
253.654
170.335
121.762
82.0015
55.3001
37.9324
26.9111
19.9168
5.09013
4.62261
5.37943
4.84764
4.11235
3.60461
3.23041
2.90399
2.61906
2.38312
2.19183
2.03937
1.91597
1.81346
1.72134
1.61607
1.4431
1.06598
0.107338
45.2652
45.7758
47.1156
49.4746
53.2078
59.0244
68.2292
83.2555
108.874
163.509
257.108
451.756
617.32
244.325
170.579
114.927
66.6098
39.7402
24.1422
14.8843
12.3607
10.8561
10.6307
6.44511
3.62822
2.397
1.79698
1.36506
1.02196
0.769526
0.593695
0.472941
0.395
0.352063
0.34105
0.359848
0.407465
0.485626
0.610819
0.880035
39.8335
39.9875
40.4403
41.288
42.703
45.0163
48.814
55.1041
65.6567
105.018
180.918
413.151
1943.55
171.695
82.071
31.6009
15.4187
7.0239
-2.67888
-9.63431
14.3879
13.8345
8.24461
4.96476
3.70883
3.10009
2.60654
2.18134
1.84278
1.57836
1.3679
1.20268
1.07752
0.992282
0.947732
0.943705
0.984212
1.08315
1.29189
34.3972
34.1723
33.6602
32.843
31.6573
29.9431
27.3267
22.9252
14.4663
16.8449
0.371383
-158.761
-986.824
-1038.14
-309.158
-101.014
-46.4617
-26.3489
-17.3137
-11.049
-4.07793
-8.2606
-6.49397
-4.95684
-3.98132
-2.96779
-2.03579
-1.31847
-0.783595
-0.364787
-0.0242018
0.257063
0.493391
0.694701
0.870017
1.02351
1.14752
1.21493
1.15411
0.784188
29.3915
28.8135
27.3931
25.0168
21.4334
16.1139
8.08435
-4.47612
-25.0844
-48.1678
-120.371
-263.21
-471.699
-498.889
-317.015
-173.592
-99.6745
-60.8867
-39.2266
-25.4635
-15.479
-8.85534
-4.9404
-2.11058
-0.327512
0.802157
1.57888
2.10383
2.43351
2.62728
2.73241
2.77915
2.78571
2.76269
2.71396
2.63638
2.50954
2.28607
1.868
1.05627
25.2378
24.3591
22.2018
18.5757
13.1301
5.1786
-6.43352
-23.6051
-49.5218
-89.6699
-146.016
-217.273
-281.889
-290.106
-233.828
-162.284
-108.143
-73.3997
-50.8817
-35.2744
-24.1785
-16.7461
-11.7771
-8.22145
-5.68754
-3.87861
-2.52761
-1.49065
-0.695881
-0.0866592
0.386286
0.758373
1.05141
1.27687
1.43704
1.52615
1.52208
1.38171
1.04264
0.45362
22.2679
21.185
18.5147
14.0429
7.39673
-2.12289
-15.5645
-34.3612
-60.3162
-95.2693
-139.264
-187.332
-225.214
-232.533
-202.928
-155.284
-111.851
-80.114
-57.8178
-41.5723
-29.4863
-20.6193
-14.1109
-9.34254
-5.86009
-3.32534
-1.46947
-0.105287
0.890081
1.60666
2.11554
2.46951
2.70397
2.83982
2.88376
2.83666
2.67821
2.3648
1.82767
0.954799
20.7223
19.5361
16.6057
11.7175
4.49191
-5.73138
-19.89
-39.0906
-64.4109
-96.2957
-133.304
-170.255
-197.5
-203.748
-184.704
-149.506
-112.813
-83.0229
-60.8671
-44.3398
-31.8482
-22.5068
-15.6485
-10.6752
-7.08478
-4.48797
-2.59837
-1.21234
-0.19104
0.561938
1.11678
1.52349
1.81515
2.00903
2.10235
2.10375
1.99089
1.72262
1.25365
0.555121
60.5377
61.6919
64.5477
69.1808
75.661
84.1587
94.8378
107.662
122.177
137.179
150.38
158.189
156.905
145.441
126.421
104.969
84.8405
67.4854
53.1567
41.6806
32.6922
25.7441
20.4382
16.4397
13.4056
11.0435
9.18158
7.72807
6.60803
5.74522
5.07421
4.54689
4.12652
3.77878
3.46822
3.15693
2.8024
2.35221
1.73796
0.874308
59.3891
60.5122
63.3064
67.874
74.3388
82.967
94.0821
107.893
124.262
142.278
159.589
171.177
169.984
154.862
130.938
106.032
84.0062
65.6815
50.9826
39.5208
30.7524
24.0284
18.9376
15.2315
12.4782
10.3242
8.61553
7.27612
6.23049
5.40806
4.75536
4.23397
3.81261
3.46129
3.14968
2.84408
2.50461
2.07876
1.50055
0.706041
57.123
58.1751
60.8187
65.2008
71.5411
80.2798
92.0496
107.587
127.529
151.816
177.503
196.916
196.905
173.394
139.956
109.029
83.3056
62.9424
47.4478
35.9431
27.5594
21.371
16.7856
13.4626
10.8279
8.69858
7.07392
5.87488
4.97967
4.29873
3.77934
3.38448
3.08212
2.84475
2.64563
2.45598
2.23813
1.93608
1.46315
0.691879
53.809
54.7344
57.0914
61.0718
66.9987
75.5132
87.6561
105.001
129.831
165.317
200.352
240.48
245.824
206.909
157.994
119.699
87.9157
63.858
46.5385
34.1949
21.1786
15.6089
13.3952
11.9324
9.84503
7.72075
6.03739
4.77674
3.80472
3.04508
2.45942
2.0147
1.68096
1.43112
1.2438
1.09732
0.960582
0.778118
0.446433
-0.211305
49.5805
50.3063
52.1922
55.4472
60.4474
67.9479
79.2758
96.7038
124.099
167.74
240.849
323.756
346.587
241.824
163.047
116.871
78.02
52.0537
35.382
24.8765
18.2161
4.01495
3.89548
4.78525
4.15396
3.23317
2.55199
2.04055
1.61236
1.25818
0.980868
0.773219
0.628281
0.534854
0.488643
0.486406
0.520631
0.557537
0.480525
-0.119225
44.6566
45.1044
46.3147
48.4633
51.8762
57.2188
65.7339
79.7618
103.974
157.38
249.228
440.709
602.224
231.085
167.617
111.045
63.2216
36.7937
21.7724
12.8196
10.5728
10.1072
8.74333
3.84265
0.549066
-1.03633
-1.8381
-2.34523
-2.68594
-2.89514
-3.00703
-3.056
-3.04774
-2.99234
-2.88714
-2.72011
-2.46595
-2.07819
-1.45199
-0.265427
39.3442
39.4563
39.8238
40.5373
41.7568
43.7986
47.2319
53.0757
63.1817
102.015
177.779
410.564
1930.13
206.423
77.1782
28.8439
12.9362
4.78138
-4.57818
-10.3647
11.5744
11.0046
5.25808
1.99269
0.801783
0.261182
-0.154721
-0.496433
-0.75517
-0.946296
-1.08803
-1.18757
-1.23866
-1.23402
-1.15749
-0.981589
-0.663503
-0.116063
0.841002
34.028
33.7852
33.2369
32.3719
31.1334
29.3768
26.7732
22.5456
14.6593
17.5686
3.26617
-148.65
-965.263
-1016.17
-298.985
-95.8483
-44.3955
-26.0915
-17.9347
-11.9882
-4.78211
-8.63777
-7.46318
-6.4137
-5.52181
-4.45444
-3.45789
-2.67686
-2.08065
-1.60967
-1.22645
-0.908908
-0.640561
-0.405521
-0.182864
0.0428286
0.284338
0.536776
0.749984
0.721402
29.1426
28.5595
27.1498
24.8081
21.302
16.1427
8.43311
-3.5065
-22.9425
-44.9665
-113.344
-250.169
-452.019
-478.961
-303.019
-165.202
-94.9887
-58.5053
-38.2352
-25.2674
-15.6371
-9.6121
-6.00979
-3.33007
-1.58881
-0.463717
0.327971
0.882156
1.24844
1.48019
1.62382
1.70974
1.75789
1.78106
1.79143
1.79304
1.77724
1.7095
1.499
0.928838
25.0825
24.218
22.1093
18.5814
13.3106
5.66247
-5.43311
-21.7381
-46.2225
-84.0374
-137.116
-204.558
-266.229
-274.428
-221.221
-153.632
-102.731
-70.204
-49.1325
-34.5023
-24.0991
-17.1831
-12.302
-8.76947
-6.30599
-4.5602
-3.23239
-2.18851
-1.37252
-0.736609
-0.234476
0.167593
0.492249
0.750306
0.950966
1.09283
1.16096
1.11938
0.905396
0.438438
22.1793
21.1235
18.5274
14.1958
7.78507
-1.34946
-14.1779
-32.0268
-56.5674
-89.5228
-130.981
-176.381
-212.408
-219.64
-191.885
-147.034
-106.223
-76.4601
-55.5439
-40.2785
-28.8999
-20.5173
-14.2536
-9.6432
-6.29811
-3.86812
-2.07499
-0.740807
0.244757
0.963897
1.4837
1.85461
2.11156
2.27554
2.35829
2.35976
2.26473
2.03674
1.61067
0.867514
20.6652
19.5145
16.6713
11.939
4.97941
-4.82431
-18.3328
-36.5695
-60.5215
-90.6128
-125.508
-160.396
-186.247
-192.397
-174.667
-141.631
-107.161
-79.1909
-58.373
-42.8189
-31.0379
-22.1967
-15.655
-10.8714
-7.40033
-4.88762
-3.05421
-1.69866
-0.688481
0.0662478
0.631033
1.05338
1.36513
1.58376
1.71603
1.75894
1.69715
1.49834
1.11914
0.517092
59.2035
60.2433
62.8339
67.0341
72.8891
80.5335
90.0932
101.511
114.355
127.542
139.027
145.625
144.15
133.526
116.106
96.4921
78.0512
62.1175
48.9643
38.4422
30.1965
23.7695
18.7729
14.945
12.0382
9.8016
8.05898
6.70663
5.66688
4.86865
4.25064
3.76754
3.38505
3.07318
2.80196
2.53984
2.25079
1.88933
1.39711
0.702811
58.0838
59.0909
61.6181
65.7484
71.5752
79.3181
89.2454
101.519
115.993
131.845
147.014
156.863
155.595
141.744
119.971
97.2938
77.1508
60.3538
46.9061
36.4546
28.4614
22.1666
17.2612
13.6665
11.0412
9.02223
7.43031
6.18453
5.21618
4.46115
3.86774
3.3981
3.02339
2.71731
2.45492
2.20946
1.94839
1.62725
1.18723
0.565709
55.8761
56.8119
59.1896
63.133
68.8213
76.6296
87.1031
100.878
118.506
139.935
162.565
179.776
179.342
157.963
127.798
99.7545
76.2177
57.5796
43.4971
33.17
25.834
19.8138
14.9118
11.5317
9.14473
7.31462
5.91383
4.86631
4.07813
3.47426
3.01002
2.65534
2.38552
2.17799
2.01582
1.87928
1.74245
1.55947
1.24701
0.646595
52.654
53.4664
55.568
59.1232
64.4041
71.9668
82.7253
98.0728
120.05
151.545
184.851
221.414
226.012
189.877
145.324
110.349
80.7814
58.4792
42.5943
31.4313
19.5994
14.1563
11.0567
9.21928
7.38735
5.66908
4.31238
3.28944
2.49784
1.87483
1.3883
1.0176
0.740032
0.535293
0.397592
0.319253
0.289744
0.275313
0.187008
-0.203376
48.5509
49.1747
50.8316
53.7026
58.1095
64.714
74.6947
90.0856
114.408
155.339
222.564
299.799
320.995
221.658
150.782
108.426
71.2868
46.8773
31.5384
21.9667
15.1993
-1.19278
-0.177838
1.87463
1.96177
1.42831
0.942618
0.522724
0.131528
-0.214946
-0.502844
-0.721822
-0.8798
-0.980507
-1.01305
-0.963618
-0.811131
-0.548355
-0.246533
-0.316039
43.7816
44.1484
45.1752
47.017
49.9549
54.5769
61.9932
74.3294
95.9162
146.212
233.649
417.98
572.464
206.479
158.087
106.085
58.0206
32.396
18.4467
10.2545
2.95284
-1.55788
0.338983
-0.540697
-1.89569
-2.67228
-3.1031
-3.44499
-3.74098
-3.9772
-4.15212
-4.28688
-4.36449
-4.38739
-4.3359
-4.17321
-3.83446
-3.20349
-2.07656
-0.135026
38.6457
38.7047
38.9511
39.4677
40.3926
42.0043
44.8185
49.7985
58.7646
95.7045
169.494
401.755
1893.25
201.961
80.6525
25.6182
8.66413
0.772904
-8.92244
-17.7814
11.45
9.89561
3.63836
-0.0334793
-1.68693
-2.60978
-3.28675
-3.80141
-4.17571
-4.44075
-4.61682
-4.72358
-4.76451
-4.71348
-4.5381
-4.17408
-3.51117
-2.36392
-0.483442
33.5201
33.2478
32.649
31.7131
30.3868
28.5386
25.8882
21.78
14.4887
17.72
6.03007
-133.615
-913.451
-963.015
-275.574
-86.9152
-42.2912
-26.7197
-19.6544
-14.1053
-4.80918
-7.80076
-7.02385
-6.41317
-5.78512
-4.96653
-4.17094
-3.53116
-3.03978
-2.65576
-2.34884
-2.08707
-1.8758
-1.68621
-1.48252
-1.23358
-0.899821
-0.441536
0.138225
0.611639
28.8066
28.2215
26.829
24.5342
21.1298
16.1817
8.89826
-2.19622
-19.9793
-40.245
-102.667
-228.994
-417.919
-443.169
-278.345
-151.745
-88.1893
-55.3692
-37.1253
-25.3822
-16.5456
-11.5914
-7.26852
-4.10931
-2.39971
-1.48111
-0.877768
-0.464701
-0.20343
-0.0474524
0.0466118
0.107362
0.147974
0.184862
0.235006
0.310367
0.416934
0.544601
0.628081
0.477806
24.8871
24.0461
22.0078
18.6202
13.596
6.37443
-3.9944
-19.0672
-41.4725
-75.781
-123.821
-185.103
-241.545
-249.511
-201.616
-140.678
-94.9041
-65.6352
-46.6192
-33.4129
-24.097
-18.0148
-12.8225
-9.01444
-6.58798
-4.98103
-3.77018
-2.81103
-2.05944
-1.47285
-1.00702
-0.629089
-0.319297
-0.0637205
0.151563
0.330185
0.466588
0.538101
0.491885
0.247549
22.0814
21.0673
18.5791
14.448
8.37356
-0.214339
-12.1735
-28.6682
-51.1642
-81.1807
-118.817
-160.065
-193.024
-199.979
-175.174
-134.817
-98.0634
-71.1938
-52.2349
-38.3618
-28.0187
-20.3626
-14.3927
-9.89843
-6.67029
-4.3664
-2.6825
-1.43537
-0.518673
0.146755
0.626583
0.970614
1.21307
1.37599
1.47432
1.51075
1.47514
1.34046
1.05535
0.538631
20.6181
19.5168
16.8005
12.2981
5.71678
-3.48943
-16.0803
-32.9459
-54.9401
-82.4169
-114.173
-145.923
-169.573
-175.464
-159.727
-130.097
-99.0233
-73.7023
-54.7782
-40.5933
-29.8235
-21.7018
-15.5966
-11.0237
-7.66661
-5.24535
-3.49164
-2.20017
-1.23944
-0.522958
0.0124681
0.413534
0.711944
0.927016
1.06844
1.13548
1.11614
0.986353
0.713569
0.281511
57.5358
58.4383
60.7039
64.3724
69.4591
76.0516
84.2239
93.8841
104.621
115.482
124.736
129.725
127.918
118.367
103.068
85.8762
69.6292
55.5098
43.8146
34.4452
27.1014
21.3784
16.8973
13.3993
10.7038
8.62516
7.00965
5.75723
4.79398
4.055
3.48252
3.03619
2.68603
2.40632
2.17103
1.95495
1.72962
1.45848
1.09417
0.569451
56.4532
57.3213
59.5219
63.1147
68.1551
74.8018
83.2457
93.5759
105.611
118.615
130.899
138.356
136.786
124.644
105.825
86.1647
68.5254
53.7097
41.8263
32.6032
25.5921
20.0853
15.7248
12.3832
9.86649
7.91855
6.38275
5.18253
4.25651
3.54578
2.99158
2.5576
2.21835
1.94896
1.73053
1.54189
1.3584
1.14702
0.861258
0.436206
54.3195
55.1173
57.17
60.5728
65.4531
72.0987
80.9299
92.4249
106.971
124.44
142.629
156.355
155.289
136.992
111.467
87.4588
66.9862
50.6631
38.3527
29.454
23.5204
18.4607
13.773
10.3652
8.04886
6.33438
5.01518
4.01246
3.25302
2.67074
2.22618
1.88754
1.63428
1.44643
1.31393
1.22545
1.16871
1.11549
1.00011
0.641745
51.2147
51.8937
53.6827
56.7114
61.1856
67.5435
76.5104
89.1863
107.169
132.72
162.609
193.155
196.449
165.102
127.335
97.0489
70.8539
51.2113
37.3445
27.8881
19.1715
16.4242
11.2134
7.40754
4.90253
3.09067
1.78002
0.854761
0.2004
-0.275329
-0.628033
-0.885853
-1.06449
-1.18182
-1.23222
-1.20445
-1.08465
-0.865969
-0.577896
-0.408321
47.2707
47.7753
49.1515
51.5442
55.203
60.6555
68.845
81.4035
101.167
137.196
193.75
260.042
277.88
190.475
133.042
95.021
61.0829
39.4224
26.1723
18.4607
15.8621
7.41172
4.97513
3.36837
1.7416
0.342997
-0.70087
-1.50487
-2.11984
-2.58496
-2.93905
-3.1888
-3.35061
-3.44111
-3.44164
-3.31244
-3.00316
-2.43172
-1.53841
-0.626647
42.7041
42.9711
43.7727
45.23
47.5616
51.2352
57.1382
66.9905
84.3367
128.438
206.157
373.357
515.968
172.885
155.247
95.264
48.1863
24.4048
12.1177
5.12231
-4.16515
-31.8785
-28.9082
-26.8505
-25.7228
-24.4708
-23.2544
-22.2272
-21.3931
-20.6874
-20.0604
-19.506
-18.9809
-18.4426
-17.8521
-17.143
-16.1872
-14.7223
-12.1583
-6.99084
37.7841
37.783
37.8808
38.1489
38.6904
39.7155
41.6312
45.2146
51.9829
84.4382
151.455
371.905
1828.77
267.639
68.0636
13.4032
-2.85573
-9.46924
-14.6389
-18.7517
-3.02433
-5.23978
-9.73217
-12.0581
-12.9255
-13.2987
-13.5164
-13.6402
-13.674
-13.6308
-13.5443
-13.3808
-13.1464
-12.8181
-12.33
-11.5617
-10.2668
-7.97093
-3.89404
32.8973
32.596
31.9364
30.9084
29.4571
27.4582
24.665
20.5269
13.6403
16.4426
6.86741
-117.215
-829.44
-857.44
-238.849
-79.7088
-43.626
-30.6045
-24.158
-18.7386
-12.8416
-21.7106
-17.5153
-13.5615
-11.3255
-9.78283
-8.60013
-7.73303
-7.11457
-6.66679
-6.33191
-6.06171
-5.83947
-5.62801
-5.38333
-5.0494
-4.54778
-3.75364
-2.5139
-0.807168
28.4054
27.8232
26.4524
24.2112
20.9208
16.2099
9.41082
-0.700495
-16.4866
-34.3902
-88.3878
-197.993
-363.458
-384.236
-241.319
-133.905
-80.1892
-52.0456
-36.1726
-26.1654
-20.1932
-18.775
-12.5148
-7.47978
-4.9436
-3.6407
-2.7931
-2.2067
-1.82099
-1.57336
-1.40873
-1.2928
-1.20472
-1.11612
-1.00521
-0.84688
-0.611091
-0.269116
0.162815
0.46935
24.6674
23.8574
21.9073
18.689
13.9647
7.25419
-2.23275
-15.7889
-35.5771
-65.3195
-106.447
-158.683
-206.793
-214.283
-174.738
-123.803
-85.11
-59.974
-43.4332
-31.9693
-24.169
-19.5929
-14.4666
-10.3348
-7.66334
-5.88293
-4.5376
-3.47758
-2.65491
-2.02099
-1.5264
-1.13226
-0.816256
-0.552767
-0.324539
-0.118037
0.0742836
0.246911
0.35879
0.287553
21.9893
21.0268
18.6723
14.7868
9.12374
1.20357
-9.68847
-24.5093
-44.4415
-70.6853
-103.247
-138.709
-167.165
-173.563
-153.034
-119.065
-87.7813
-64.5652
-47.9711
-35.7649
-26.7085
-20.086
-14.772
-10.5338
-7.36816
-5.06399
-3.3589
-2.08093
-1.12854
-0.426085
0.0899954
0.468605
0.744161
0.942092
1.07924
1.16345
1.19196
1.14576
0.977394
0.576715
20.5917
19.5518
16.9909
12.7699
6.65042
-1.82392
-13.2838
-28.4547
-48.0072
-72.1709
-99.8602
-127.414
-147.991
-153.395
-140.271
-115.324
-88.7582
-66.7978
-50.1854
-37.6422
-28.0954
-20.8957
-15.4358
-11.2171
-8.01717
-5.65425
-3.91117
-2.60545
-1.61756
-0.868827
-0.301045
0.130175
0.456443
0.698973
0.869697
0.972105
0.99894
0.930648
0.734104
0.36058
55.6412
56.3963
58.3032
61.3822
65.6177
71.045
77.6779
85.3816
93.7544
101.972
108.641
111.789
109.505
101.144
88.3154
73.9676
60.3102
48.3168
38.2758
30.1356
23.661
18.563
14.5909
11.5209
9.15125
7.30523
5.85646
4.72659
3.85332
3.18373
2.66131
2.25195
1.92906
1.6743
1.46367
1.27488
1.08863
0.878199
0.618248
0.292528
54.6006
55.3211
57.1618
60.1585
64.3268
69.7555
76.545
84.6905
93.9462
103.609
112.208
117.097
114.949
104.752
89.4883
73.4869
58.9101
46.4614
36.3229
28.2913
21.972
17.0491
13.2327
10.3289
8.11184
6.37134
4.98422
3.88878
3.03645
2.40732
1.90714
1.5114
1.20419
0.957005
0.764429
0.611831
0.475315
0.337722
0.18061
0.013854
52.5542
53.2056
54.9004
57.703
61.6845
67.0309
74.0106
82.898
93.839
106.534
119.282
128.027
125.985
111.339
91.4536
72.6289
56.2772
42.8721
32.5266
24.6951
18.5662
14.1742
10.591
7.87531
5.87823
4.33669
3.14589
2.24127
1.55282
1.00751
0.608402
0.316902
0.108999
-0.0280067
-0.112353
-0.144275
-0.129077
-0.0704627
0.0104913
0.0633978
49.5822
50.1237
51.5689
54.0122
57.5846
62.5845
69.5004
79.0398
92.144
109.922
134.263
155.616
156.681
132.275
103.184
79.273
58.1644
42.0977
30.5718
22.4303
11.5837
8.78476
5.84178
3.25605
1.29563
-0.285309
-1.52188
-2.43521
-3.07602
-3.52564
-3.83536
-4.03766
-4.15198
-4.19733
-4.16832
-4.04287
-3.79967
-3.38997
-2.73875
-1.68449
45.8238
46.2037
47.272
49.1319
51.9489
56.0881
62.1865
71.3192
85.2726
113.76
153.4
199.55
208.903
141.69
101.393
72.2273
45.3311
28.0982
17.466
11.2692
9.65553
-2.46644
-3.89226
-4.87694
-6.2439
-7.39541
-8.20273
-8.9086
-9.35099
-9.5784
-9.68607
-9.71913
-9.65955
-9.51535
-9.31254
-8.97651
-8.43589
-7.54742
-6.0776
-3.70282
41.4836
41.6527
42.2078
43.2356
44.8805
47.4551
51.5496
58.2781
69.8619
103.564
162.196
288.021
394.653
105.503
116.62
58.173
19.8479
1.34337
-7.84992
-12.2953
-9.66228
-23.2203
-25.8143
-30.6092
-32.3356
-32.3685
-31.8857
-31.1176
-30.3382
-29.5799
-28.8095
-28.0051
-27.2114
-26.4122
-25.5255
-24.488
-23.1527
-21.1698
-17.7197
-10.7701
36.8348
36.7576
36.6929
36.6831
36.7834
37.116
37.9191
39.6407
43.1304
67.3609
118.159
299.686
1650.59
256.352
-19.4308
-62.0358
-69.781
-70.4418
-68.7
-64.1094
-36.9506
-35.9191
-37.9352
-38.0355
-36.9979
-35.7724
-34.597
-33.5102
-32.4856
-31.4944
-30.5492
-29.6157
-28.6471
-27.6466
-26.5131
-25.083
-22.9724
-19.2899
-11.7118
32.2146
31.8774
31.1507
30.0175
28.4169
26.2239
23.2033
18.8767
12.1407
13.3726
4.90877
-91.1709
-657.384
-651.842
-194.345
-83.2217
-55.8009
-43.8613
-37.0956
-31.3152
-28.0859
-30.7959
-26.6237
-22.6014
-20.1832
-18.4316
-17.075
-16.0386
-15.2357
-14.5946
-14.0608
-13.5986
-13.1933
-12.764
-12.2942
-11.7258
-10.9517
-9.77531
-7.82598
-4.33692
27.9722
27.3973
26.0498
23.865
20.6953
16.2332
9.942
0.889193
-12.5696
-27.7475
-70.6731
-154.044
-278.299
-295.547
-191.748
-112.348
-70.863
-47.9365
-34.4552
-25.977
-23.2478
-18.3019
-14.7296
-11.7161
-9.84165
-8.59236
-7.63655
-6.87983
-6.28187
-5.80673
-5.42042
-5.09548
-4.81718
-4.55269
-4.27742
-3.96067
-3.55546
-2.9944
-2.18505
-1.01222
24.4446
23.673
21.8193
18.7867
14.3885
8.24193
-0.273272
-12.136
-28.9277
-53.315
-86.04
-126.318
-162.595
-169.534
-141.195
-103.107
-72.8941
-52.3621
-38.3508
-28.4061
-21.4737
-17.6446
-14.1733
-11.2136
-8.98342
-7.31803
-6.01869
-4.98524
-4.16562
-3.51505
-2.99322
-2.56652
-2.21377
-1.90858
-1.63233
-1.36851
-1.10408
-0.828496
-0.541236
-0.247539
21.9165
21.0123
18.8075
15.1949
9.98757
2.80756
-6.90031
-19.8537
-36.89
-58.7842
-85.3347
-113.69
-136.364
-141.784
-126.535
-100.577
-75.7547
-56.6629
-42.6112
-32.0768
-24.152
-18.3809
-13.955
-10.4674
-7.80225
-5.80613
-4.30074
-3.15319
-2.27538
-1.60387
-1.0883
-0.69048
-0.382348
-0.142411
0.0439822
0.184639
0.278622
0.315007
0.271349
0.125368
20.5963
19.6254
17.239
13.3314
7.72519
0.063686
-10.1399
-23.4227
-40.2366
-60.6386
-83.6294
-106.216
-123.012
-127.681
-117.762
-98.1034
-76.7797
-58.6351
-44.5449
-33.7149
-25.374
-19.0506
-14.2999
-10.681
-7.92659
-5.84918
-4.28242
-3.09049
-2.17705
-1.47487
-0.934113
-0.516116
-0.19283
0.0545845
0.237523
0.360313
0.416923
0.392058
0.268374
0.056465
53.6504
54.2564
55.8006
58.2812
61.6551
65.9086
70.9992
76.7553
82.7919
88.4175
92.5705
93.8869
91.1188
83.9516
73.5963
62.1197
51.1106
41.3084
32.9657
26.0875
20.5309
16.1128
12.6751
10.0702
8.077
6.50813
5.26337
4.2883
3.53459
2.95494
2.50569
2.15631
1.88324
1.66561
1.48413
1.31982
1.15096
0.951938
0.692073
0.337815
52.6557
53.2274
54.7053
57.098
60.3848
64.5881
69.7215
75.6935
82.2053
88.614
93.7629
95.8485
92.9401
84.6
72.9257
60.6999
49.3687
39.4492
31.1572
24.4282
19.0179
14.7084
11.4
9.00069
7.20372
5.78817
4.66249
3.77662
3.08464
2.54669
2.1207
1.78259
1.51514
1.30058
1.12651
0.980267
0.843855
0.695529
0.505613
0.238821
50.7036
51.2075
52.5442
54.7401
57.8152
61.8566
66.9842
73.274
80.64
88.6323
96.0128
99.9969
96.4491
84.8348
70.3645
56.9127
44.9892
34.7664
26.4788
19.9067
14.6188
10.5111
7.99535
6.23903
4.75063
3.528
2.608
1.94172
1.45991
1.10845
0.857098
0.679868
0.559945
0.484103
0.443353
0.435651
0.456348
0.491485
0.501849
0.371406
47.8776
48.2772
49.3799
51.2348
53.8998
57.5374
62.4005
68.8086
77.0814
87.379
98.1602
106.258
101.133
82.5613
64.7787
50.7368
38.3766
28.354
20.6905
14.5158
8.27924
2.08214
2.22043
2.63321
2.02271
1.11395
0.327713
-0.288702
-0.761709
-1.12132
-1.38913
-1.57971
-1.70089
-1.76137
-1.75811
-1.67652
-1.501
-1.20927
-0.797497
-0.339673
44.3168
44.5716
45.3317
46.6607
48.6307
51.4506
55.4486
61.1193
69.0988
88.4691
108.316
128.412
123.777
84.449
61.3886
46.6013
30.1083
18.3889
10.8694
5.74481
0.57131
-13.3781
-10.9171
-8.07627
-6.85152
-6.25461
-5.84351
-5.56197
-5.35308
-5.1904
-5.06331
-4.95481
-4.8476
-4.72876
-4.56513
-4.31104
-3.90672
-3.25826
-2.28129
-1.08872
40.2208
40.2912
40.5995
41.198
42.1531
43.6235
45.8946
49.4404
55.0234
75.8172
101.552
145.443
166.812
28.6018
24.4366
5.94168
-4.54222
-8.99196
-11.9549
-14.1678
-20.2518
-12.4542
-14.4711
-16.9031
-17.7428
-17.8284
-17.6655
-17.3776
-17.0293
-16.6397
-16.2099
-15.7318
-15.2399
-14.7367
-14.1654
-13.4703
-12.5456
-11.1657
-8.91085
-5.11762
35.8512
35.7074
35.4811
35.1927
34.8505
34.4857
34.1543
33.931
33.8611
47.3874
58.5676
128.259
167.154
-715.875
-136.289
-92.6332
-65.163
-58.2355
-53.8126
-51.1459
-69.0164
-40.0952
-38.0856
-36.1425
-34.245
-32.3471
-30.6508
-29.1831
-27.9008
-26.7561
-25.7123
-24.7504
-23.8519
-22.9604
-22.0409
-21.0265
-19.7977
-18.0689
-15.2158
-9.65155
31.5198
31.1517
30.3603
29.1225
27.3746
24.9848
21.7125
17.1055
10.2522
8.96343
-11.9762
-79.3224
-303.019
-258.58
-111.419
-62.2934
-39.0981
-28.0346
-22.0507
-17.4724
-9.404
5.61448
2.31905
-1.54284
-3.23572
-4.05982
-4.60816
-4.99394
-5.24914
-5.40689
-5.49366
-5.53286
-5.52099
-5.43534
-5.26122
-4.97532
-4.51008
-3.73871
-2.49607
-0.818201
27.5447
26.9763
25.6566
23.534
20.4911
16.2797
10.4739
2.33668
-9.50328
-27.8179
-50.8402
-104.248
-175.103
-189.138
-132.905
-84.9282
-56.3954
-38.7789
-27.7444
-19.9324
-9.91143
-1.09548
-2.32672
-3.92078
-4.02198
-3.61532
-3.19866
-2.83141
-2.50464
-2.2214
-1.98155
-1.77654
-1.60007
-1.44019
-1.26682
-1.05856
-0.789828
-0.425846
0.0275455
0.393627
24.2388
23.5092
21.7587
18.9202
14.8581
9.2848
1.74946
-8.42469
-22.2154
-40.8743
-65.0728
-92.916
-117.027
-122.796
-106.082
-80.9993
-59.3236
-43.5031
-32.0893
-23.3721
-16.0612
-11.2044
-8.55738
-6.64299
-4.90775
-3.47792
-2.40581
-1.61323
-1.0184
-0.569161
-0.228813
0.0321173
0.232886
0.393242
0.533707
0.664035
0.787167
0.892277
0.925114
0.712253
21.8748
21.0337
18.9841
15.6546
10.9163
4.49164
-4.01581
-15.0858
-29.2049
-46.6573
-66.9741
-88.0544
-104.466
-109.012
-99.2737
-81.3199
-63.0852
-48.189
-36.7055
-27.7492
-20.638
-15.1678
-11.0113
-7.96581
-5.6854
-3.94945
-2.63196
-1.63065
-0.864131
-0.274584
0.178589
0.525905
0.789911
0.987802
1.13132
1.22539
1.26389
1.22409
1.05318
0.638625
20.6394
19.7404
17.5366
13.9555
8.87901
2.04814
-6.88145
-18.2577
-32.3108
-48.9085
-67.1157
-84.6293
-97.4992
-101.375
-94.6163
-80.3948
-64.2697
-49.9424
-38.3936
-29.2535
-22.0133
-16.3557
-12.039
-8.80407
-6.34849
-4.44881
-2.97676
-1.8423
-0.970261
-0.300386
0.212735
0.603254
0.896864
1.11124
1.25659
1.33599
1.34019
1.2458
1.00794
0.549503
51.6996
52.1669
53.3702
55.293
57.8671
61.0419
64.7336
68.7534
72.7529
76.1813
78.2799
78.1721
75.1484
69.1448
61.0105
52.0884
43.4401
35.6127
28.8331
23.1587
18.5325
14.8468
11.9829
9.79296
8.08384
6.71003
5.6012
4.71717
4.01958
3.46999
3.03439
2.68578
2.40223
2.16409
1.95299
1.74992
1.53097
1.26705
0.922008
0.452113
50.7514
51.1858
52.3235
54.1569
56.6292
59.7137
63.3588
67.4191
71.5864
75.3198
77.789
77.9052
74.6811
68.0717
59.3817
50.2544
41.6229
33.8764
27.236
21.7541
17.333
13.8519
11.2197
9.24545
7.69268
6.42931
5.40421
4.57945
3.91532
3.37883
2.94275
2.58538
2.28962
2.03958
1.82024
1.61692
1.40865
1.16658
0.8502
0.408774
48.8947
49.2645
50.2649
51.9038
54.149
57.0122
60.5017
64.5578
68.9644
73.2276
76.397
76.9066
72.9658
64.7228
54.9454
45.7422
37.373
29.8507
23.4718
18.3047
14.2097
11.1456
9.14662
7.59887
6.19938
5.00398
4.06837
3.35929
2.81911
2.40327
2.0831
1.83741
1.64967
1.50604
1.39485
1.30624
1.22488
1.1222
0.94021
0.555339
46.2155
46.4894
47.2734
48.5872
50.4324
52.858
55.9424
59.7378
64.1868
68.9437
73.0261
74.1384