/*--------------------------------*- C++ -*----------------------------------*\
| =========                 |                                                 |
| \\      /  F ield         | OpenFOAM: The Open Source CFD Toolbox           |
|  \\    /   O peration     | Version:  2306                                  |
|   \\  /    A nd           | Website:  www.openfoam.com                      |
|    \\/     M anipulation  |                                                 |
\*---------------------------------------------------------------------------*/
FoamFile
{
    version     2.0;
    format      ascii;
    arch        "LSB;label=32;scalar=64";
    class       surfaceScalarField;
    location    "1.9";
    object      phi;
}
// * * * * * * * * * * * * * * * * * * * * * * * * * * * * * * * * * * * * * //

dimensions      [0 3 -1 0 0 0 0];

oriented        oriented;

internalField   nonuniform List<scalar> 
338621
(
24.995
0.00251891
0.00115785
24.9872
0.00524849
0.00246511
24.9748
0.00825958
0.00399499
24.9574
0.0114137
0.00588007
24.9339
0.0148223
0.00842472
24.901
0.0208997
0.0117896
24.8541
0.0304304
0.0160915
24.7911
0.0410318
0.0216435
24.7291
0.0327882
0.028685
24.686
0.00547201
0.0371303
24.6578
-0.0191379
0.046833
24.5841
0.0159623
0.0572814
24.6128
-0.0974197
0.0681302
24.7436
-0.209647
0.0783942
24.7858
-0.130139
0.0874596
24.8185
-0.128041
0.0949627
24.8473
-0.130115
0.100896
24.8704
-0.128975
0.105644
24.8895
-0.128533
0.109216
24.9157
-0.138156
0.111879
24.9451
-0.143046
0.113593
24.9675
-0.137198
0.114775
24.9847
-0.132823
0.115582
24.9989
-0.130231
0.115986
25.0111
-0.128431
0.116231
25.0215
-0.126798
0.116402
25.0307
-0.125665
0.116488
25.0386
-0.124489
0.116522
25.0455
-0.12344
0.116629
25.0515
-0.12279
0.116796
25.0567
-0.122298
0.117007
25.0615
-0.121985
0.117228
25.0657
-0.121781
0.117553
25.0695
-0.121686
0.117938
25.0729
-0.121713
0.118312
25.0764
-0.122158
0.118676
25.0799
-0.122508
0.118956
25.0837
-0.122939
0.119199
25.0878
-0.123486
0.119337
-0.124404
0.119096
24.9949
0.00501526
0.00113567
24.9871
0.010619
0.00238921
24.9743
0.0170199
0.00390534
24.9568
0.0230459
0.00577528
24.9333
0.0298247
0.0082984
24.9035
0.0388351
0.0115581
24.8677
0.0500805
0.0159112
24.8218
0.0650126
0.0215564
24.7571
0.0683008
0.028789
24.6823
0.0422011
0.037679
24.6393
-0.0248126
0.048221
24.6261
-0.0306907
0.0595202
24.6648
-0.208505
0.0719941
24.7493
-0.377988
0.0835221
24.8303
-0.304751
0.0933003
24.8992
-0.29837
0.10115
24.9516
-0.29004
0.107253
24.9936
-0.283102
0.111982
25.0381
-0.288698
0.115506
25.0716
-0.289586
0.117937
25.0913
-0.282429
0.119568
25.1053
-0.271754
0.120571
25.1148
-0.263597
0.12128
25.1224
-0.259465
0.121672
25.1282
-0.256182
0.121916
25.1329
-0.25359
0.122056
25.1362
-0.251164
0.122203
25.1391
-0.249687
0.122345
25.1417
-0.24857
0.122543
25.1436
-0.247486
0.122798
25.1451
-0.246912
0.123099
25.146
-0.246338
0.123438
25.1469
-0.246507
0.123823
25.1476
-0.246632
0.124223
25.1483
-0.246977
0.124604
25.1489
-0.247805
0.124985
25.1498
-0.248612
0.125246
25.151
-0.24963
0.125471
25.1531
-0.251062
0.12554
-0.251997
0.125281
24.9953
0.00715742
0.00108443
24.9875
0.0160389
0.0022849
24.9754
0.0253081
0.00370504
24.9573
0.0354961
0.00556912
24.9327
0.046188
0.00801093
24.9014
0.0587873
0.0112303
24.8612
0.0743272
0.0156292
24.8118
0.0927321
0.0214078
24.7425
0.108233
0.0290634
24.6439
0.101559
0.0389256
24.5667
0.00606463
0.0510943
-0.00537418
0.00553017
-0.00521295
24.6631
-0.0382676
0.065464
-0.0580821
-0.0381986
-0.0581052
24.5555
-0.0110916
0.079129
-0.0955636
0.0209083
-0.0943741
24.7288
-0.182832
0.0923266
-0.124881
-0.212959
-0.123074
24.8232
-0.130311
0.102535
-0.12319
-0.127992
-0.120428
24.8849
-0.119938
0.110414
-0.118177
-0.116985
-0.115572
24.9394
-0.116411
0.116509
-0.116763
-0.114046
-0.113881
25.0052
-0.119166
0.121188
-0.118195
-0.116792
-0.115965
25.0478
-0.115716
0.124562
-0.11433
-0.113507
-0.112284
25.0729
-0.111935
0.126653
-0.110859
-0.109788
-0.108737
25.0907
-0.428041
0.127889
25.1042
-0.413701
0.12845
25.1124
-0.400635
0.128779
25.1188
-0.394866
0.129029
25.124
-0.390649
0.129253
25.1279
-0.386916
0.129422
25.1306
-0.383443
0.129584
25.1329
-0.381714
0.129788
25.134
-0.379785
0.130055
25.1352
-0.379048
0.130385
25.1357
-0.378168
0.130759
25.1361
-0.377853
0.131157
25.1359
-0.377832
0.131507
25.1356
-0.378312
0.131927
25.135
-0.378548
0.132223
25.1342
-0.379561
0.132495
25.1339
-0.380867
0.132613
25.1339
-0.382262
0.132657
25.1341
-0.383833
0.132535
-0.385399
0.132142
24.9956
0.0095452
0.00100664
24.9888
0.02067
0.0021253
24.9769
0.0336553
0.00342623
24.96
0.0471468
0.00520299
24.9353
0.0632371
0.00749104
24.9008
0.0825613
0.0105945
24.8551
0.10495
0.0148743
24.7967
0.130259
0.0206677
24.7294
0.146662
0.0286216
6.14105
0.0379297
0.0394322
0.0551473
0.038572
0.0544782
6.16306
6.14019
6.16092
6.12331
0.018011
0.00578422
-6.11005
6.09767
-0.033577
0.00768241
-6.10143
6.12269
-0.042027
0.00968767
-6.11492
6.14181
-0.22147
0.0117608
-6.16077
6.17533
-0.158181
0.0133168
-6.189
6.20006
-0.145371
0.0143642
-6.21171
6.22628
-0.146222
0.0152355
-6.23843
6.24576
-0.142437
0.0159455
-6.2516
6.25679
-0.137344
0.0164456
-6.26113
6.26502
-0.132597
0.0167745
25.1015
-0.146108
0.138569
-0.14679
-0.144808
-0.146463
-6.26846
-6.27316
-6.26888
-6.27335
25.107
-0.557699
0.138473
25.1094
-0.54092
0.137887
25.112
-0.534795
0.137388
25.1126
-0.528504
0.137206
25.1118
-0.523344
0.13728
25.1107
-0.519987
0.137589
25.1086
-0.517664
0.1381
25.1056
-0.515556
0.138741
25.1019
-0.514737
0.139434
25.0977
-0.514048
0.140098
25.0927
-0.513586
0.140669
25.087
-0.513211
0.141061
25.081
-0.513663
0.141399
25.0747
-0.513693
0.141468
25.0679
-0.514154
0.141397
25.061
-0.515048
0.14107
25.0542
-0.515959
0.140525
25.0485
-0.517975
0.139783
-0.519063
0.138759
24.9973
0.0102127
0.00090137
24.9913
0.0246957
0.00190375
24.9815
0.0403465
0.00306071
24.966
0.0579138
0.00465038
24.9431
0.079355
0.0066934
24.9096
0.106412
0.00947471
24.8597
0.141479
0.0133066
24.7853
0.185787
0.0186753
6.17113
0.236235
0.0260875
6.16386
6.17077
6.16381
6.15494
0.0501912
0.00392297
6.12905
0.00556601
-6.15724
0.0203697
0.0121931
0.0119317
0.0206248
-0.0424974
-6.07593
6.04121
0.00764523
-0.00186306
0.00448638
0.00400273
-0.00159408
0.0220689
-6.04016
6.05799
0.0100936
0.0291914
-0.0399938
-0.0402318
-0.0190171
0.0421847
-6.11012
6.13545
0.0129523
-0.052441
-0.0670496
-0.104922
-0.05291
0.239087
-6.16837
6.18107
0.0145515
-0.0516038
-0.0554922
-0.0547368
-0.0520751
0.186675
-6.19344
6.20745
0.0154253
-0.0520411
-0.0513437
-0.0511636
-0.052177
0.177289
-6.22148
6.23366
0.0161788
-0.0502694
-0.050229
-0.0500982
-0.0503995
0.172643
-6.24355
6.25096
0.0168239
-0.0476007
-0.0475549
-0.0473897
-0.0477733
0.166104
-6.2574
6.26196
0.0173178
-0.0450375
-0.0453303
-0.0451277
-0.0452603
0.158894
-6.26597
6.26801
0.0176419
-0.0427953
-0.043355
-0.0431133
-0.0430557
0.15265
-6.27104
6.27268
-0.165636
0.0178914
25.045
-0.663522
0.139883
-6.27257
-6.26622
-6.2733
-6.26689
25.0198
-0.65252
0.136809
24.9933
-0.641817
0.133498
24.9668
-0.632422
0.13045
24.9414
-0.626014
0.128023
24.9168
-0.621705
0.12632
24.8927
-0.618825
0.125246
24.8697
-0.617178
0.124622
24.847
-0.616209
0.124241
24.8248
-0.61584
0.123924
24.8035
-0.615739
0.123526
24.7829
-0.615567
0.122923
24.7626
-0.615498
0.122176
24.7432
-0.615514
0.121148
24.7247
-0.615467
0.119883
24.707
-0.61573
0.118342
24.6909
-0.616367
0.116506
24.6765
-0.617989
0.114399
-0.621457
0.112
24.9999
0.00885342
0.000769555
24.9965
0.0263876
0.00162032
24.989
0.0452517
0.00260738
24.9772
0.0657451
0.0038793
24.9596
0.0913263
0.00556796
24.9326
0.125582
0.00780259
24.8895
0.173652
0.0108105
24.8173
0.242983
0.015033
6.17089
0.350258
0.0207154
6.17045
6.17089
6.17027
-0.066252
6.14523
0.0888124
0.00310377
-0.0200021
-1.52761
1.52244
0.0245896
0.000581394
-0.0199268
-1.5041
1.49188
0.0314392
0.00071116
-1.46785
0.0517562
1.47756
-0.0625592
0.00109741
-1.5287
0.0848621
1.53727
-0.0948415
0.00141219
-1.53567
0.0627356
-0.0669854
0.00194477
1.53797
-1.54778
0.0607761
-0.0652481
0.00182969
1.55042
0.0580848
-1.55633
1.55782
-0.061327
0.00174881
0.0539101
-1.56081
1.56134
-0.0562901
0.00184492
0.0509797
-1.56185
1.56185
-0.0530721
0.00209298
0.0484309
-1.56086
1.56033
-0.0503269
0.00242574
-1.55364
0.180426
6.15556
-0.17229
0.017871
-1.53653
-1.5543
-1.53709
23.8026
-0.764329
0.0714063
-6.09558
-5.79158
-6.09875
-5.78725
23.8244
-0.73967
0.0653361
23.8436
-0.722191
0.0612191
23.8617
-0.708566
0.0580294
23.8782
-0.69832
0.0557743
23.893
-0.69073
0.0542848
23.9062
-0.685297
0.0532752
23.918
-0.681495
0.0524986
23.9289
-0.678881
0.0517888
23.939
-0.677021
0.0510465
23.9486
-0.675559
0.0502146
23.9582
-0.674393
0.0492388
23.9678
-0.673264
0.0481638
23.9775
-0.672095
0.0469133
23.9876
-0.671085
0.0454641
23.9982
-0.670043
0.04376
24.0092
-0.669074
0.0417047
24.0202
-0.668179
0.0391732
-0.666821
0.0360969
25.003
0.00494182
0.000629568
25.0036
0.0244773
0.00130087
25.0008
0.0459751
0.00207666
24.9952
0.0683608
0.00299015
24.9865
0.0958473
0.00416169
24.9731
0.133332
0.00568065
24.9535
0.185629
0.00755763
24.9226
0.263938
0.00993572
6.21359
0.390514
0.0126626
6.22163
6.21326
6.22123
-0.107152
6.19827
0.1207
0.00177979
-0.0397375
-1.54221
1.53609
0.0455729
0.000282919
-0.0832378
-1.50696
1.48867
0.101443
7.91156e-05
0.00420086
-0.0745734
0.0747265
-0.00436964
1.58028e-05
-0.0213792
0.000449734
0.0208911
2.45236e-06
3.5856e-05
-0.203371
0.00925797
-0.0202029
-0.00281034
0.217126
-1.18001
0.0563312
-0.0762937
0.00125957
1.19871
0.0500158
-1.24027
1.25017
-0.0595632
-0.000351226
0.0494384
-1.2825
1.29363
-0.0588819
-0.00168158
0.0485827
-1.32372
1.33325
-0.0553868
-0.00273262
0.0492023
-1.3584
1.36707
-0.0544339
-0.00344626
-1.40629
0.202469
5.831
-0.219502
-0.0136963
-1.49758
-1.399
-1.4974
24.1083
-0.682341
-0.109554
-5.87939
-6.1711
-5.86043
-6.16985
24.1305
-0.654739
-0.10709
24.1532
-0.639993
-0.104887
24.1768
-0.628847
-0.103355
24.2006
-0.619679
-0.102393
24.2242
-0.612693
-0.101678
24.2476
-0.607649
-0.101034
24.2703
-0.604035
-0.10021
24.2922
-0.601571
-0.0991346
24.3128
-0.599935
-0.0977613
24.3323
-0.598871
-0.0961403
24.3505
-0.598286
-0.094283
24.3675
-0.597953
-0.092384
24.3837
-0.597739
-0.0904771
24.3988
-0.597488
-0.0887624
24.4135
-0.597321
-0.0873961
24.4278
-0.596848
-0.086516
24.4417
-0.595755
-0.0863355
-0.593167
-0.0870984
25.0048
-9.57144e-05
0.000480844
25.0101
0.0181795
0.000973859
25.0152
0.0394605
0.00149635
25.0192
0.06223
0.00207401
25.0213
0.0911683
0.00268312
25.0265
0.124791
0.0033794
25.0387
0.169398
0.00400363
25.065
0.233407
0.00433448
6.27482
0.334511
0.00395118
6.28259
6.27496
6.28472
-0.112661
6.28272
0.104412
0.00035461
-0.0448975
-1.57819
1.57995
0.0431478
-1.67055e-05
-0.0842524
-1.59898
1.61427
-0.000383961
0.0693393
-0.0251635
-1.71458
1.75269
-0.00183938
0.0546759
-0.0202576
-0.0252567
-0.0202758
0.101442
-1.71434
1.68465
-0.00143008
-0.0703373
0.104074
-1.61005
-0.00176294
1.59938
-0.091648
0.0794878
-1.58473
-0.00176625
1.58176
-0.0747529
0.0581543
-1.57696
1.57598
-0.055345
-0.00182858
0.0587026
-1.57411
1.57227
-0.0549847
-0.00188407
0.0529128
-1.57179
1.57112
-0.0503099
-0.00193104
0.0491614
-1.57011
1.5696
-0.046684
-0.00196149
-1.56723
0.182505
6.26332
-0.162466
-0.0156002
-1.56674
-1.56695
-1.56684
25.0659
-0.55207
-0.125966
-6.2668
-6.2667
-6.26924
-6.26746
25.0677
-0.530813
-0.125797
25.0665
-0.513705
-0.125027
25.0647
-0.503013
-0.124097
25.0634
-0.495095
-0.123306
25.0626
-0.489198
-0.122647
25.0619
-0.484799
-0.122191
25.0611
-0.48134
-0.121835
25.0604
-0.479332
-0.121574
25.0596
-0.477767
-0.121365
25.0586
-0.476572
-0.121234
25.0575
-0.476252
-0.12102
25.0565
-0.475981
-0.120908
25.0551
-0.475562
-0.120793
25.0541
-0.475709
-0.120825
25.0534
-0.47553
-0.121059
25.0531
-0.475009
-0.121558
25.0536
-0.473776
-0.122432
-0.471959
-0.123648
25.0057
-0.00516088
0.000281808
25.0143
0.00902495
0.000636756
25.0274
0.0254398
0.000935956
25.0388
0.0496376
0.00117617
25.0544
0.0744255
0.00130784
25.078
0.100008
0.00122495
25.1161
0.130652
0.000750102
25.1797
0.170554
-0.000599077
6.32106
0.232584
-0.00336682
6.31921
6.32529
6.3196
-0.0895539
6.33728
0.074105
-0.000766161
-0.0334397
6.41439
0.0883205
-0.00183843
-0.0345957
-0.0335276
-0.0341093
-6.3652
-0.033378
6.51889
0.0756853
-0.00399131
-0.0260486
-0.0332192
-0.0259708
-6.47198
-0.00679564
-6.54973
6.5159
-0.00681229
-0.00708514
0.0156779
-0.00711545
0.0459316
0.0461797
-6.5376
6.51555
-0.125366
-0.00996986
0.0399191
0.0369424
0.0343061
0.055973
-6.45054
6.41252
-0.179912
-0.0121014
0.0564352
0.0583447
0.0592711
0.0572401
-6.37226
6.33991
-0.178058
-0.0134451
0.0559587
0.056136
0.0545295
0.0474399
-6.32162
6.31025
-0.159975
-0.0144573
0.0465089
0.0462292
0.0456229
0.0454042
-6.30141
6.29537
-0.159079
-0.0151529
0.0451666
0.0449468
0.0447445
0.0423587
-6.29079
6.28527
-0.146224
-0.0155394
0.0418459
0.0418524
0.0412131
0.0393663
-6.2809
6.27535
-0.134023
-0.0157207
0.0388783
0.0388357
0.0382026
0.145444
-6.27371
6.27174
-0.127631
-0.0158476
25.0668
-0.41308
-0.129544
-6.26916
-6.26928
-6.26935
-6.26851
25.0598
-0.395009
-0.128771
25.0569
-0.382957
-0.127862
25.0553
-0.374359
-0.127076
25.0547
-0.368074
-0.126408
25.0545
-0.36316
-0.125814
25.0545
-0.35959
-0.12528
25.0549
-0.356944
-0.12479
25.055
-0.355099
-0.124329
25.055
-0.353891
-0.123888
25.0549
-0.352956
-0.123501
25.0547
-0.352902
-0.123116
25.054
-0.35258
-0.122747
25.0539
-0.352973
-0.122496
25.0537
-0.35306
-0.122379
25.0534
-0.352864
-0.122416
25.054
-0.352929
-0.122677
25.056
-0.352515
-0.123231
-0.352016
-0.124103
25.0064
-0.0103124
0.00021511
25.0163
-0.00131494
0.000398825
25.0254
0.0159502
0.000495007
25.0421
0.0324833
0.000479147
25.069
0.0474769
0.000201032
25.1027
0.0669282
-0.000465423
25.1505
0.0848386
-0.00176872
25.2173
0.108191
-0.00419484
25.3269
0.131696
-0.00844845
25.4328
0.145007
-0.0155062
-0.0617817
-0.0573451
-0.0587979
-0.0571484
25.5814
0.131965
-0.0263522
-0.0609981
-0.0643281
-0.0615495
-0.0670412
25.716
0.0533508
-0.0416601
-0.0418605
-0.0278077
-0.0451038
-0.0314254
25.5938
-0.158871
-0.0596971
0.02216
0.125369
0.0206844
0.172561
25.5006
-0.241803
-0.0784432
0.0850332
0.118868
0.10035
0.109253
25.4311
-0.253784
-0.0939544
0.085107
0.150657
0.0332217
0.148462
25.3444
-0.358753
-0.105557
0.137643
0.140691
0.135416
0.137435
25.2593
-0.329115
-0.113319
0.131534
0.135243
0.128748
0.132145
25.1923
-0.339384
-0.118434
0.13459
0.131568
0.131081
0.127669
25.1485
-0.318057
-0.121619
0.12441
0.121208
0.120874
0.116898
25.1245
-0.298385
-0.123489
0.113575
0.113268
0.108755
0.110222
25.1053
-0.282942
-0.124462
0.108618
0.107813
0.105799
0.104349
25.0887
-0.271756
-0.124696
25.0792
-0.261089
-0.124424
25.0735
-0.253181
-0.124048
25.0696
-0.246828
-0.123703
25.0669
-0.242049
-0.123258
25.0653
-0.23879
-0.122813
25.0637
-0.235587
-0.122397
25.0626
-0.233798
-0.122039
25.0613
-0.232076
-0.121769
25.0604
-0.231318
-0.121592
25.0596
-0.2307
-0.121529
25.0584
-0.230097
-0.121587
25.0577
-0.230181
-0.121683
25.0566
-0.229883
-0.121963
25.0557
-0.229873
-0.122333
25.0557
-0.230027
-0.122832
25.0563
-0.230031
-0.123479
25.0571
-0.229039
-0.124298
-0.228224
-0.12528
25.0067
-0.0152676
0.000134826
25.0099
-0.00475895
0.0002298
25.0179
0.00792366
0.000190938
25.0377
0.0127811
4.88017e-06
25.0634
0.0223902
-0.000508866
25.0931
0.03902
-0.00155424
25.1414
0.0402058
-0.00334815
25.2029
0.0532458
-0.00630449
25.2825
0.0636137
-0.0110943
25.3787
0.0675126
-0.018324
25.4859
0.0537128
-0.0285823
25.5661
0.0157771
-0.0422643
25.5435
-0.0778169
-0.0581375
25.5285
-0.152364
-0.0741986
25.405
-0.0417229
-0.0881884
25.3217
-0.175801
-0.0993523
25.271
-0.170916
-0.107194
25.209
-0.164512
-0.112756
25.1639
-0.156457
-0.116366
25.132
-0.147782
-0.118645
25.1088
-0.139812
-0.119979
25.0912
-0.133579
-0.120513
25.0789
-0.128256
-0.120597
25.0704
-0.124247
-0.120355
25.0645
-0.121008
-0.119976
25.0606
-0.118691
-0.1194
25.0573
-0.116674
-0.118823
25.0553
-0.115337
-0.118279
25.0538
-0.1146
-0.117734
25.0527
-0.113654
-0.117289
25.0518
-0.113456
-0.116938
25.0507
-0.112963
-0.116702
25.0503
-0.113106
-0.116544
25.0495
-0.112907
-0.11651
25.0494
-0.113161
-0.116608
25.0493
-0.112971
-0.116801
25.0496
-0.113255
-0.117099
25.0504
-0.11324
-0.117521
25.0524
-0.112954
-0.118097
-0.113544
-0.118865
24.987
0.000113595
24.9821
0.000199605
24.99
9.23743e-05
25.003
-9.85328e-05
25.0264
-0.000752873
25.0676
-0.00189643
25.112
-0.00383369
25.1726
-0.00698374
25.2486
-0.0119207
25.3357
-0.0190384
25.4187
-0.0287505
25.4762
-0.0412194
25.4543
-0.0554332
25.3723
-0.0698976
25.414
-0.0829433
25.3326
-0.0939743
25.264
-0.101978
25.2072
-0.107543
25.1622
-0.111285
25.1282
-0.113686
25.1036
-0.115118
25.0858
-0.115772
25.0734
-0.115887
25.0648
-0.115601
25.059
-0.115187
25.0549
-0.114625
25.0523
-0.114051
25.0505
-0.113572
25.049
-0.113056
25.048
-0.112685
25.047
-0.112457
25.0463
-0.112313
25.0455
-0.112272
25.045
-0.112377
25.0445
-0.112656
25.0445
-0.113018
25.0447
-0.113465
25.0455
-0.114013
25.0472
-0.11469
-0.115535
24.9954
0.00168161
0.00229897
24.9884
0.00451443
0.00479723
24.9772
0.00712722
0.00777092
24.9608
0.0102696
0.0115085
24.9392
0.0130862
0.0163514
24.9097
0.0177631
0.0227403
24.8678
0.0259666
0.0311017
24.8105
0.0358505
0.0418832
24.7551
0.0273233
0.0554315
24.7191
-0.000500684
0.0720987
24.6945
-0.0213498
0.0912002
24.6325
0.00557485
0.112153
24.6613
-0.0956907
0.133594
24.779
-0.194966
0.154146
24.8115
-0.118591
0.172055
24.8355
-0.116922
0.186628
24.8584
-0.121176
0.198083
24.8774
-0.121123
0.207026
24.894
-0.121713
0.213813
24.9212
-0.134501
0.218814
24.9486
-0.136242
0.222264
24.97
-0.131428
0.22466
24.9871
-0.127888
0.226288
25.0015
-0.125766
0.227367
25.0134
-0.123847
0.228073
25.0239
-0.122571
0.228525
25.0327
-0.121157
0.228821
25.0401
-0.119896
0.229033
25.0465
-0.119037
0.229259
25.0521
-0.118337
0.229558
25.0567
-0.117547
0.229939
25.0604
-0.116922
0.230419
25.064
-0.116974
0.230972
25.0674
-0.117175
0.231657
25.0704
-0.117021
0.232343
25.0736
-0.117559
0.233085
25.0768
-0.117953
0.233658
25.0804
-0.118519
0.234174
25.0847
-0.119412
0.234366
-0.120196
0.233632
24.9955
0.00341791
0.00224439
24.9885
0.00905009
0.00469217
24.9767
0.0148552
0.00761739
24.9604
0.0206302
0.0113141
24.9383
0.0267763
0.0161247
24.9106
0.0338368
0.0225136
24.8775
0.043181
0.0309427
24.835
0.0569344
0.0419748
24.7723
0.0614615
0.0561493
24.6968
0.0375242
0.0739069
24.6541
-0.0265621
0.0949746
24.593
0.00658832
0.118511
24.6287
-0.203047
0.142633
24.7613
-0.41055
0.165491
24.8423
-0.292034
0.184698
24.9102
-0.284523
0.199946
24.9602
-0.276541
0.211822
25.0003
-0.270568
0.220851
25.0454
-0.279187
0.227584
25.0776
-0.281209
0.232325
25.0965
-0.271199
0.23554
25.1099
-0.262105
0.237714
25.1191
-0.255064
0.239237
25.1262
-0.251465
0.240274
25.1321
-0.248782
0.240975
25.1362
-0.246128
0.241457
25.1392
-0.243749
0.241844
25.1419
-0.24246
0.242219
25.1437
-0.24098
0.242643
25.1448
-0.239781
0.243141
25.1458
-0.239124
0.243721
25.1467
-0.238766
0.244379
25.1468
-0.238462
0.245147
25.1469
-0.238938
0.245944
25.1474
-0.239704
0.246757
25.1475
-0.240246
0.24753
25.1482
-0.24156
0.24819
25.1496
-0.243114
0.248672
25.1512
-0.244333
0.248879
-0.246042
0.248118
24.9956
0.0051829
0.00214089
24.9887
0.0135071
0.00448721
24.9772
0.0225406
0.00730605
24.9604
0.0317669
0.0108905
24.9373
0.0418122
0.0155986
24.9071
0.0526661
0.0219275
24.8691
0.0657538
0.0304413
24.8225
0.0822429
0.0418667
24.7567
0.0983863
0.0570563
24.6614
0.0940167
0.0767916
24.5839
0.00489179
0.101338
-0.00523555
0.00453315
-0.00440666
24.7182
-0.0385781
0.129577
-0.0587411
-0.0378762
-0.0571353
24.5772
0.0211682
0.158401
-0.0947973
0.023398
-0.091309
24.7405
-0.214513
0.185314
-0.123469
-0.210667
-0.118399
24.8313
-0.128292
0.205797
-0.120612
-0.123206
-0.114595
24.8906
-0.11746
0.221284
-0.116097
-0.111936
-0.109895
24.944
-0.114848
0.23328
-0.114645
-0.108952
-0.108557
25.0092
-0.117558
0.24227
-0.11681
-0.11168
-0.110849
25.0515
-0.114563
0.24867
-0.113515
-0.108942
-0.108482
25.0774
-0.111477
0.252798
-0.110051
-0.106658
-0.104901
25.0955
-0.416593
0.255184
25.1079
-0.402596
0.25661
25.116
-0.391937
0.257545
25.122
-0.387354
0.258898
25.1267
-0.383962
0.259781
25.1301
-0.380747
0.260678
25.1327
-0.377775
0.26096
25.1341
-0.375584
0.261485
25.135
-0.37381
0.262055
25.1361
-0.373197
0.262705
25.136
-0.371727
0.263432
25.1359
-0.371696
0.264233
25.136
-0.371988
0.264844
25.1354
-0.37231
0.265976
25.1344
-0.373372
0.26682
25.1338
-0.374715
0.267582
25.1332
-0.376533
0.268176
25.1329
-0.378601
0.268514
25.1334
-0.380874
0.268534
-0.382994
0.267574
24.9965
0.00659281
0.00198369
24.99
0.0178369
0.00416577
24.9787
0.0302177
0.00679662
24.9622
0.0430622
0.0101605
24.939
0.0575111
0.0146231
24.9058
0.0752811
0.020698
24.861
0.0958472
0.0290783
24.8028
0.11983
0.0406505
24.734
0.138486
0.0566924
6.14234
0.0375942
0.0788265
0.0525075
0.0372303
0.0518973
6.16202
6.14276
6.16165
-0.0114753
6.12499
0.0162636
0.0174093
-0.0153636
-6.11308
6.10111
-0.0344995
0.023269
-0.0194709
-6.10516
6.09761
0.0187552
0.0294936
-0.0236043
-6.11315
6.14514
-0.25854
0.0357133
-0.026717
-6.16353
6.17758
-0.155966
0.0403573
-0.0289045
-6.19097
6.20193
-0.143146
0.043605
-0.0306367
-6.21299
6.22748
-0.144939
0.0462293
-0.032009
-6.24031
6.24766
-0.141188
0.0483118
-0.0329919
-6.25349
6.25875
-0.136553
0.0497667
-0.033598
-6.26242
6.26633
-0.132457
0.0507095
25.1028
-0.145749
0.282149
-0.146126
-0.143465
-0.141237
-6.26992
-6.2738
-6.26928
-6.27313
25.1082
-0.551578
0.282118
25.1105
-0.537664
0.281368
25.1125
-0.534174
0.282258
25.113
-0.530365
0.283069
25.112
-0.526661
0.284267
25.1108
-0.524026
0.285036
25.1087
-0.52158
0.286141
25.1059
-0.5195
0.287308
25.1019
-0.518319
0.288503
25.0977
-0.517069
0.28968
25.0926
-0.516747
0.290803
25.0866
-0.516517
0.291556
25.0802
-0.517168
0.292694
25.0732
-0.518166
0.293295
25.0659
-0.519825
0.293744
25.0581
-0.521336
0.293741
25.0504
-0.523715
0.293289
25.0441
-0.527004
0.292252
-0.529393
0.289972
24.9982
0.00637609
0.00177098
24.9929
0.0212256
0.00372126
24.9831
0.0368008
0.00606796
24.9682
0.0533205
0.00906658
24.9459
0.0732008
0.0130593
24.9136
0.0984698
0.0182796
24.8647
0.131438
0.0261912
24.792
0.173945
0.03698
6.17304
0.22439
0.0524942
6.16614
6.17365
6.16649
-0.00778293
6.15782
0.0487095
0.0118563
-0.0111183
6.13161
0.0169783
-6.16026
0.0194598
0.0112327
0.0197418
0.0109373
-0.038585
-0.0153926
-6.07902
6.04579
0.0236714
-0.00263262
0.00292979
-0.00265872
0.00285983
0.0245851
-0.0204671
-6.04414
6.05772
0.031486
0.0517901
-0.0408984
0.0513042
-0.040628
-0.0458763
-0.025812
-6.09812
6.13929
0.0392852
-0.0516224
-0.129712
-0.0523182
-0.129198
0.308487
-0.0287805
-6.17021
6.1817
0.0434118
-0.0505823
-0.0543098
-0.0512706
-0.0536521
0.183806
-0.03055
-6.19511
6.20928
0.046112
-0.0513779
-0.0511512
-0.0520262
-0.0505274
0.175353
-0.0321308
-6.22318
6.23539
0.0486077
-0.0498096
-0.0502213
-0.0503881
-0.0496404
0.171418
-0.0335155
-6.24534
6.25281
0.0506745
-0.0470446
-0.0475479
-0.0477379
-0.0470705
0.164868
-0.0345583
-6.25941
6.26372
0.0521272
-0.0447342
-0.0452036
-0.0450411
-0.04487
0.158065
-0.0352034
-6.26765
6.26945
0.0530242
-0.0427467
-0.0430638
-0.0426599
-0.042883
0.15179
-6.27139
-0.0353126
6.27293
-0.165813
0.0538619
25.043
-0.662738
0.288244
-6.27347
-6.26598
-6.27333
-6.26734
25.0144
-0.656293
0.284126
24.985
-0.651767
0.280553
24.9562
-0.647798
0.2767
24.9294
-0.645304
0.273384
24.9041
-0.643287
0.270945
24.8804
-0.64131
0.268637
24.858
-0.639584
0.267114
24.8361
-0.638107
0.265963
24.815
-0.637052
0.264997
24.7945
-0.636505
0.263823
24.7742
-0.636401
0.263052
24.7541
-0.636609
0.261749
24.7344
-0.637508
0.260148
24.715
-0.638644
0.258155
24.6966
-0.640202
0.255606
24.6793
-0.642276
0.252341
24.6638
-0.645366
0.248226
-0.650307
0.242809
25.0019
0.002964
0.001504
24.9995
0.0220116
0.00315587
24.9917
0.0420195
0.00511929
24.9795
0.0616617
0.00759542
24.9619
0.085363
0.0108547
24.9358
0.117343
0.0147781
24.8936
0.1629
0.0214225
24.8225
0.229856
0.0300284
6.17274
0.335464
0.0426174
6.17172
6.17316
6.17184
-0.00612641
-0.0636163
6.14736
0.0855641
0.00956976
-0.00199657
-0.0190119
-1.52812
1.5229
0.0235767
0.00265906
-0.00290307
-0.0180139
-1.50456
1.49196
0.0297932
0.00375758
-0.00427577
-1.46899
0.0527721
1.47886
-0.063811
0.00551246
-0.0061839
-1.52822
0.154096
1.53975
-0.167071
0.00769114
-0.00729377
-1.53674
0.0603681
-0.0631458
1.53876
0.00808611
-1.54851
-0.00740197
0.0598017
-0.0636603
0.00835681
1.55142
-0.00763328
0.0575987
-1.55745
1.55901
-0.0602698
0.00875234
-0.00806608
0.0534892
-1.56219
1.56278
-0.0553715
0.00936179
-0.00848183
0.050322
-1.56343
1.56345
-0.0518719
0.010015
-0.00870612
0.0474513
-1.56252
1.56196
-0.0487392
0.0105597
-1.5547
-0.0314261
0.179784
6.15649
-0.171462
0.0501036
-1.53844
-1.554
-1.53633
23.827
-0.766543
0.151308
-6.0971
-5.79375
-6.10752
-5.80467
23.8368
-0.74619
0.145431
23.8455
-0.739302
0.14013
23.855
-0.733506
0.134155
23.8656
-0.728728
0.128677
23.8768
-0.724433
0.124224
23.8892
-0.720465
0.120026
23.9023
-0.716843
0.116655
23.9159
-0.713679
0.113728
23.9298
-0.71098
0.111083
23.9439
-0.708754
0.108343
23.9578
-0.707077
0.106096
23.9716
-0.705814
0.103508
23.9852
-0.704928
0.100756
23.9987
-0.704334
0.0976963
24.012
-0.70394
0.0941835
24.0251
-0.703653
0.0899646
24.0377
-0.703389
0.0845819
-0.702984
0.0770503
25.0089
0.00172474
0.00121781
25.0095
0.0201083
0.00251506
25.006
0.0435112
0.00401559
24.9992
0.0656397
0.00584025
24.9891
0.091406
0.00814044
24.9754
0.126035
0.0106195
24.9558
0.175006
0.0150067
24.9253
0.250278
0.0200308
6.21379
0.375582
0.0267936
6.22166
6.21385
6.22175
-0.00358471
-0.103453
6.19828
0.116875
0.00568447
-0.00104743
-0.0387082
-1.54206
1.53589
0.0445096
0.00142278
-0.000953898
-0.0816309
-1.50573
1.48704
0.09973
0.00156158
-5.16391e-05
0.00455432
-0.074729
0.0749843
-0.00484047
8.2796e-05
-0.00408425
-0.170193
0.00484052
-0.0142596
-0.00227474
0.185969
-1.09544
0.00397979
0.0399806
-0.0638571
-0.00762585
1.12296
0.00663621
0.0369328
-1.18289
1.19648
-0.0482239
-0.00892408
0.00724309
0.0410937
-1.23712
1.25077
-0.0521868
-0.00978719
0.00712124
0.0425588
-1.28743
1.29903
-0.051025
-0.0102537
0.00669043
0.0447115
-1.32995
1.34074
-0.0518172
-0.0103715
-1.39174
0.0266558
0.202067
5.82843
-0.22319
-0.0444827
-1.49405
-1.4059
-1.4978
24.1277
-0.6945
-0.227195
-5.8837
-6.17082
-5.85377
-6.17378
24.1653
-0.667401
-0.223574
24.198
-0.657287
-0.219552
24.227
-0.649384
-0.216449
24.2522
-0.642435
-0.213879
24.2744
-0.636776
-0.211531
24.2945
-0.632414
-0.209238
24.3133
-0.62902
-0.206862
24.3313
-0.626491
-0.204308
24.3488
-0.624659
-0.201517
24.366
-0.623588
-0.198525
24.3833
-0.623272
-0.19536
24.4007
-0.623475
-0.19221
24.4182
-0.623741
-0.189139
24.4355
-0.624083
-0.186334
24.4525
-0.624337
-0.183996
24.4692
-0.624315
-0.182472
24.485
-0.623385
-0.182168
-0.620275
-0.183784
25.0082
-0.00334281
0.000909993
25.0152
0.0122192
0.00184655
25.0219
0.0355428
0.00285621
25.0257
0.059981
0.00397499
25.0249
0.0897459
0.00522296
25.0291
0.118962
0.00633054
25.0409
0.159479
0.00793012
25.0688
0.217908
0.00891854
6.27581
0.307427
0.00894669
6.28804
6.27706
6.29115
-0.000823394
-0.10846
6.2832
0.100539
0.00134692
-2.45105e-05
-0.0438981
-1.57777
1.57946
0.0421758
5.59112e-05
0.000909698
-0.0814443
-1.59994
1.61648
0.0648274
-0.000855472
0.00436782
-0.0271882
-1.71256
1.7512
0.0604054
-0.00221679
-0.0226966
-0.0281989
-0.0231583
0.0045657
0.111316
-1.7119
1.68049
-0.0797219
-0.0048125
0.106175
-1.6094
0.00590042
1.5981
-0.0943704
-0.00645302
0.00663074
0.0750238
-1.58266
-0.00749588
1.58044
-0.0719469
0.00711881
0.0549654
-1.57708
1.57559
-0.0523639
-0.00822876
0.00740217
0.0569443
-1.57476
1.57335
-0.0542203
-0.00870853
0.00756677
0.0512853
-1.57257
1.57195
-0.0492024
-0.00902577
0.00758809
0.0477266
-1.56926
1.5696
-0.0464873
-0.00917592
-1.5699
0.0302842
0.184683
6.27436
-0.161626
-0.0468818
-1.56998
-1.57016
-1.57079
25.0887
-0.539274
-0.264653
-6.27709
-6.26953
-6.2832
-6.27548
25.0891
-0.529274
-0.264413
25.0863
-0.516185
-0.263332
25.083
-0.507539
-0.262613
25.0795
-0.500167
-0.262065
25.0765
-0.494884
-0.261578
25.0737
-0.490567
-0.261174
25.071
-0.487317
-0.260859
25.0685
-0.484982
-0.260616
25.0661
-0.483187
-0.26043
25.0639
-0.482266
-0.260307
25.0622
-0.482163
-0.260487
25.0605
-0.482391
-0.260301
25.0588
-0.482273
-0.260491
25.0577
-0.482988
-0.260882
25.0571
-0.483099
-0.261647
25.0569
-0.482783
-0.262947
25.0574
-0.481331
-0.264951
-0.479077
-0.267583
25.0069
-0.00791532
0.000610049
25.017
0.00159915
0.00119951
25.0311
0.0206678
0.00175097
25.0395
0.0507104
0.00220597
25.0571
0.0712323
0.00246396
25.0805
0.0947827
0.00233009
25.1182
0.121426
0.00143018
25.1834
0.153465
-0.000950658
6.32975
0.193991
-0.00610826
6.31889
6.3339
6.31745
-0.0853176
0.00140641
6.34807
0.0677694
-0.00214892
-0.0327311
0.00363107
6.4219
0.0862698
-0.00514442
-0.0306863
-0.0328303
-0.0296562
-6.38072
-0.0291363
0.007831
6.49302
0.0801864
-0.0109709
-0.0286242
-0.0280881
-0.030833
-6.45346
-0.00920786
0.0136976
-6.54148
6.5008
-0.0591326
-0.0199133
0.0631181
-0.0105041
0.0623939
0.035765
0.020237
-6.49347
6.47466
-0.146147
-0.02991
0.0523002
0.0349344
0.0514161
0.0590509
-6.45071
0.0254465
6.40694
-0.185352
-0.0376175
0.058146
0.0624802
0.061545
0.0567805
0.0285202
-6.36681
6.3391
-0.179659
-0.0423524
0.0548536
0.0557297
0.05387
0.0466
0.0305468
-6.32526
6.3181
-0.161692
-0.0454681
0.0460251
0.0457853
0.0453699
0.0454285
0.0318351
-6.31359
6.30537
-0.157735
-0.0474324
0.0459716
0.044765
0.0453358
0.0446483
0.0324525
-6.29637
6.2872
-0.147445
-0.0484847
0.0421577
0.0441277
0.0416585
0.0396052
0.0326868
-6.27965
6.27184
-0.13029
-0.0489415
0.036617
0.0401843
0.0379072
0.141511
-6.27045
0.03286
6.27088
-0.125652
-0.049171
25.0698
-0.395767
-0.268158
-6.26947
-6.26764
-6.27016
-6.2675
25.0642
-0.385985
-0.266515
25.0615
-0.376532
-0.264823
25.0595
-0.369005
-0.263662
25.0588
-0.363324
-0.262553
25.0582
-0.358626
-0.26142
25.0581
-0.355427
-0.260299
25.0583
-0.353102
-0.259221
25.0582
-0.351039
-0.258213
25.0586
-0.350119
-0.257303
25.0585
-0.349228
-0.256495
25.0586
-0.349227
-0.256111
25.058
-0.34918