/*--------------------------------*- C++ -*----------------------------------*\
| =========                 |                                                 |
| \\      /  F ield         | OpenFOAM: The Open Source CFD Toolbox           |
|  \\    /   O peration     | Version:  2306                                  |
|   \\  /    A nd           | Website:  www.openfoam.com                      |
|    \\/     M anipulation  |                                                 |
\*---------------------------------------------------------------------------*/
FoamFile
{
    version     2.0;
    format      ascii;
    arch        "LSB;label=32;scalar=64";
    class       volVectorField;
    location    "1.9";
    object      U;
}
// * * * * * * * * * * * * * * * * * * * * * * * * * * * * * * * * * * * * * //

dimensions      [0 1 -1 0 0 0 0];

internalField   nonuniform List<vector> 
111542
(
(99.9933 0.00588919 0.00232271)
(99.9708 0.0119855 0.00495805)
(99.929 0.0182295 0.00798187)
(99.8666 0.0247477 0.0118265)
(99.7823 0.0312685 0.0168623)
(99.6741 0.0370053 0.0235396)
(99.5412 0.0400854 0.0321448)
(99.3857 0.0375222 0.0432134)
(99.2172 0.024645 0.0573082)
(99.0555 -0.00503032 0.0745192)
(98.9338 -0.0573834 0.0944265)
(98.893 -0.130228 0.116116)
(98.9601 -0.205475 0.138601)
(99.1266 -0.263288 0.159896)
(99.348 -0.29247 0.178541)
(99.5745 -0.302222 0.194261)
(99.7775 -0.301483 0.206982)
(99.9476 -0.295213 0.21706)
(100.085 -0.286604 0.224726)
(100.194 -0.27776 0.230373)
(100.278 -0.269943 0.234128)
(100.342 -0.263273 0.236467)
(100.39 -0.257521 0.237973)
(100.427 -0.253128 0.238733)
(100.456 -0.249955 0.239045)
(100.479 -0.247576 0.239308)
(100.499 -0.246128 0.239434)
(100.514 -0.245489 0.239538)
(100.527 -0.245342 0.239827)
(100.537 -0.245543 0.240316)
(100.545 -0.24603 0.240953)
(100.552 -0.24682 0.241646)
(100.557 -0.247736 0.242505)
(100.561 -0.248743 0.243503)
(100.565 -0.249859 0.244562)
(100.569 -0.251119 0.245591)
(100.574 -0.252594 0.246449)
(100.579 -0.254154 0.247205)
(100.587 -0.255822 0.247823)
(100.601 -0.257813 0.248314)
(99.9935 0.0175317 0.00228384)
(99.9715 0.0356086 0.00481763)
(99.9303 0.0545121 0.00784226)
(99.8684 0.0745435 0.0116818)
(99.7835 0.0950667 0.0166995)
(99.6722 0.113973 0.0233384)
(99.5313 0.126316 0.0320768)
(99.3603 0.123244 0.0434885)
(99.1651 0.0900558 0.0581342)
(98.9645 0.00552871 0.0762875)
(98.7996 -0.14808 0.0977692)
(98.7372 -0.365069 0.120772)
(98.8224 -0.593318 0.145063)
(99.0347 -0.76014 0.168136)
(99.302 -0.845162 0.18798)
(99.558 -0.876952 0.204183)
(99.7764 -0.87777 0.217104)
(99.9539 -0.861732 0.227164)
(100.094 -0.838718 0.234668)
(100.201 -0.81426 0.239961)
(100.282 -0.791567 0.243448)
(100.342 -0.772494 0.245655)
(100.388 -0.75719 0.247004)
(100.421 -0.745562 0.24776)
(100.447 -0.735821 0.248188)
(100.469 -0.726895 0.248531)
(100.486 -0.71929 0.248903)
(100.5 -0.71326 0.249385)
(100.511 -0.708578 0.250029)
(100.521 -0.705118 0.250818)
(100.529 -0.702853 0.251712)
(100.535 -0.7018 0.252667)
(100.54 -0.701738 0.253679)
(100.545 -0.702595 0.254715)
(100.548 -0.704368 0.255724)
(100.552 -0.707069 0.256648)
(100.556 -0.710728 0.25742)
(100.561 -0.715109 0.258018)
(100.568 -0.720108 0.258425)
(100.579 -0.725659 0.258746)
(99.9939 0.0286963 0.00218462)
(99.973 0.0583584 0.00461286)
(99.9335 0.0901125 0.00754403)
(99.8732 0.124699 0.011279)
(99.7883 0.161777 0.0161905)
(99.6727 0.198975 0.0227637)
(99.5186 0.22995 0.0315907)
(99.3187 0.241033 0.0433845)
(99.0698 0.205502 0.0589385)
(98.789 0.0746715 0.0789505)
(98.535 -0.261576 0.103814)
(98.4205 -0.728716 0.132521)
(98.5427 -1.15495 0.159355)
(98.8499 -1.40338 0.184478)
(99.2004 -1.50756 0.205256)
(99.5074 -1.53895 0.221621)
(99.7552 -1.524 0.23448)
(99.9471 -1.48688 0.244325)
(100.091 -1.44282 0.251376)
(100.197 -1.39851 0.255947)
(100.274 -1.35894 0.25858)
(100.328 -1.32237 0.259827)
(100.367 -1.29864 0.260264)
(100.396 -1.28656 0.26044)
(100.421 -1.27886 0.260623)
(100.44 -1.27226 0.260919)
(100.456 -1.2666 0.261389)
(100.467 -1.26203 0.262047)
(100.476 -1.25837 0.262862)
(100.482 -1.25553 0.263774)
(100.487 -1.25351 0.26471)
(100.491 -1.25238 0.26561)
(100.492 -1.25213 0.266432)
(100.493 -1.25281 0.267149)
(100.493 -1.25448 0.267734)
(100.492 -1.25724 0.268159)
(100.491 -1.26113 0.268392)
(100.491 -1.2661 0.268415)
(100.493 -1.27195 0.268269)
(100.498 -1.27813 0.268202)
(99.9945 0.0388549 0.00202951)
(99.9758 0.0793628 0.0042934)
(99.94 0.123695 0.00703515)
(99.884 0.173737 0.0105439)
(99.8025 0.230573 0.0151932)
(99.6861 0.293622 0.0214898)
(99.5203 0.358632 0.0301069)
(99.2842 0.413055 0.0419123)
(98.9488 0.427227 0.0580211)
(98.449 0.226482 0.079879)
(98.1904 0.0463236 0.0867071)
(97.8391 -0.613811 0.102784)
(97.8991 -1.42509 0.117368)
(98.3759 -1.95394 0.129942)
(98.8829 -2.1188 0.142323)
(99.2867 -2.15861 0.151002)
(99.6111 -2.12442 0.157325)
(99.8524 -2.0539 0.161966)
(100.025 -1.97622 0.165061)
(100.149 -1.90565 0.166799)
(100.304 -1.96504 0.275755)
(100.34 -1.8915 0.275839)
(100.351 -1.83756 0.274345)
(100.358 -1.80306 0.272848)
(100.366 -1.77878 0.272207)
(100.372 -1.76181 0.272547)
(100.372 -1.75105 0.273708)
(100.368 -1.74509 0.275413)
(100.361 -1.74255 0.277347)
(100.351 -1.74249 0.279207)
(100.337 -1.74422 0.280752)
(100.321 -1.74728 0.281826)
(100.302 -1.75133 0.282354)
(100.281 -1.75622 0.282324)
(100.258 -1.7619 0.281763)
(100.233 -1.76844 0.280713)
(100.207 -1.776 0.279209)
(100.182 -1.7847 0.277296)
(100.157 -1.79449 0.275083)
(100.13 -1.8042 0.273003)
(99.9956 0.047239 0.00181652)
(99.9804 0.0969604 0.00384585)
(99.9511 0.152617 0.00629572)
(99.9041 0.21781 0.00942192)
(99.8333 0.296205 0.0135674)
(99.727 0.391431 0.0192026)
(99.5657 0.506264 0.0269808)
(99.3167 0.639436 0.037768)
(98.8747 0.777788 0.0527143)
(98.5301 0.785236 0.0581279)
(97.7146 0.396005 0.0719063)
(96.9019 -0.671882 0.0897071)
(96.9826 -2.33819 0.10478)
(98.1005 -2.96918 0.117162)
(98.8322 -3.02737 0.132748)
(99.3188 -2.99676 0.140921)
(99.6928 -2.88179 0.145858)
(99.9394 -2.74662 0.149766)
(100.098 -2.62022 0.152794)
(100.193 -2.51584 0.154944)
(100.254 -2.45493 0.1573)
(100.16 -2.56814 0.280278)
(100.036 -2.5426 0.272705)
(99.9208 -2.50654 0.26522)
(99.8199 -2.46829 0.258968)
(99.7235 -2.43598 0.254506)
(99.629 -2.41075 0.251844)
(99.5367 -2.39119 0.250585)
(99.4467 -2.37596 0.250132)
(99.3589 -2.36406 0.249876)
(99.2731 -2.35466 0.249317)
(99.1895 -2.34709 0.248131)
(99.108 -2.34089 0.246161)
(99.029 -2.33581 0.243389)
(98.9524 -2.33185 0.239886)
(98.8787 -2.32913 0.235754)
(98.8084 -2.32801 0.231068)
(98.7422 -2.32908 0.225884)
(98.6824 -2.3335 0.220283)
(98.6233 -2.34377 0.214655)
(99.9971 0.0529037 0.00154843)
(99.9871 0.109092 0.00327335)
(99.9675 0.173252 0.00532816)
(99.9353 0.250817 0.00790721)
(99.885 0.348524 0.0112722)
(99.8062 0.475614 0.0157757)
(99.6798 0.645734 0.0218945)
(99.469 0.879291 0.0302219)
(99.05 1.20812 0.0414368)
(98.6409 1.37104 0.0458116)
(97.6855 1.51542 0.0439076)
(95.5673 0.753799 0.0400257)
(94.3328 -3.39841 0.054194)
(98.1087 -4.74064 0.0480696)
(98.646 -4.02456 0.0608749)
(99.2698 -3.95039 0.0457671)
(99.6727 -3.71772 0.0417327)
(99.8357 -3.48643 0.0514712)
(99.8533 -3.30133 0.066783)
(99.7612 -3.13725 0.082561)
(98.572 -2.86458 0.183816)
(95.0608 -2.51944 0.153559)
(95.1428 -2.56117 0.136208)
(95.2449 -2.56653 0.125519)
(95.3337 -2.55929 0.119221)
(95.4085 -2.5537 0.115793)
(95.4745 -2.55294 0.1141)
(95.534 -2.55647 0.113118)
(95.5877 -2.56305 0.112034)
(95.6363 -2.5713 0.110317)
(95.6811 -2.5799 0.107686)
(95.7233 -2.5878 0.10405)
(95.764 -2.59441 0.0994289)
(95.8042 -2.59953 0.0939071)
(95.8448 -2.60331 0.0875822)
(95.8863 -2.60613 0.08052)
(95.9294 -2.60853 0.0727244)
(95.9741 -2.6113 0.0641204)
(96.0199 -2.61573 0.0545952)
(96.0737 -2.62461 0.0443119)
(99.999 0.0549004 0.00126514)
(99.9955 0.113627 0.0026269)
(99.9883 0.181652 0.00419654)
(99.976 0.26567 0.00609205)
(99.9559 0.374603 0.0084489)
(99.9233 0.521976 0.0114266)
(99.8699 0.729836 0.0151771)
(99.7813 1.03687 0.0197391)
(99.6101 1.51684 0.0248015)
(99.3434 1.91852 0.0266703)
(98.6286 2.86011 0.0228685)
(95.5138 5.89819 0.010616)
(76.9829 -4.02943 0.0171174)
(102.613 -10.2735 0.0212643)
(52.1804 -2.76548 -1.04386)
(75.4056 -4.26222 -0.140008)
(79.2433 -3.51852 -0.0488794)
(82.3194 -3.26064 -0.0204639)
(84.9071 -3.18923 -0.0403678)
(87.1049 -3.23145 -0.0783337)
(92.9634 -3.73039 -0.165612)
(96.3062 -3.36392 -0.211272)
(96.4093 -3.22798 -0.205471)
(96.5289 -3.12164 -0.201326)
(96.6323 -3.0386 -0.199477)
(96.7275 -2.9725 -0.19965)
(96.8224 -2.92005 -0.20091)
(96.918 -2.87891 -0.202348)
(97.0122 -2.84681 -0.20331)
(97.1031 -2.82166 -0.203411)
(97.1895 -2.80169 -0.202516)
(97.2709 -2.78549 -0.200695)
(97.3472 -2.772 -0.198174)
(97.4184 -2.76043 -0.195264)
(97.4853 -2.75021 -0.192319)
(97.5486 -2.74093 -0.189706)
(97.609 -2.73218 -0.187814)
(97.6674 -2.72349 -0.187042)
(97.7244 -2.71395 -0.187831)
(97.794 -2.70122 -0.190676)
(100.001 0.0528854 0.00102106)
(100.005 0.109414 0.00199958)
(100.011 0.175354 0.00305176)
(100.021 0.257567 0.00420689)
(100.035 0.365176 0.00546091)
(100.057 0.511782 0.00675682)
(100.091 0.718815 0.00790273)
(100.155 1.02212 0.00839027)
(100.301 1.48396 0.00706692)
(100.352 1.89521 0.00621235)
(100.635 2.88079 0.000788944)
(102.496 5.39495 -0.0135221)
(111.242 3.7664 -0.0618671)
(109.169 -6.80402 0.0167787)
(102.821 -6.88241 -0.0380524)
(101.137 -5.06783 -0.0447288)
(100.675 -4.06322 -0.0468935)
(100.495 -3.51036 -0.047632)
(100.408 -3.18842 -0.0474172)
(100.34 -2.99924 -0.0469119)
(100.245 -2.76047 -0.132257)
(100.27 -2.33599 -0.250793)
(100.256 -2.22082 -0.249282)
(100.247 -2.15019 -0.247143)
(100.243 -2.1073 -0.245143)
(100.238 -2.07889 -0.243669)
(100.235 -2.05971 -0.242697)
(100.233 -2.04757 -0.242117)
(100.231 -2.04079 -0.241822)
(100.229 -2.03795 -0.2417)
(100.227 -2.03796 -0.241651)
(100.224 -2.04004 -0.241625)
(100.22 -2.04353 -0.241624)
(100.216 -2.04793 -0.2417)
(100.212 -2.05273 -0.241951)
(100.208 -2.05742 -0.242517)
(100.205 -2.06145 -0.243574)
(100.203 -2.06407 -0.245322)
(100.203 -2.06409 -0.247951)
(100.21 -2.05929 -0.251451)
(100.003 0.0464056 0.000614428)
(100.013 0.0960171 0.00127061)
(100.032 0.153922 0.00187963)
(100.062 0.226015 0.00235816)
(100.108 0.319767 0.00259551)
(100.176 0.445314 0.00237118)
(100.281 0.616814 0.00124673)
(100.449 0.853724 -0.00159517)
(100.769 1.18036 -0.00767973)
(100.996 1.41981 -0.0102356)
(101.856 1.87376 -0.0193891)
(103.484 1.76623 -0.0367657)
(105.279 -0.263461 -0.0567751)
(104.823 -2.86704 -0.0358422)
(103.011 -3.5989 -0.0544185)
(101.778 -3.38436 -0.0701037)
(101.137 -3.0322 -0.0799725)
(100.791 -2.73348 -0.0862489)
(100.592 -2.50921 -0.0903365)
(100.461 -2.34168 -0.0931677)
(100.368 -2.20677 -0.0956871)
(100.272 -1.91298 -0.254158)
(100.242 -1.87029 -0.252927)
(100.224 -1.83701 -0.251141)
(100.216 -1.81176 -0.249628)
(100.213 -1.79148 -0.248589)
(100.212 -1.77466 -0.247924)
(100.213 -1.76098 -0.247487)
(100.214 -1.75025 -0.247158)
(100.215 -1.7421 -0.246845)
(100.215 -1.73611 -0.246499)
(100.215 -1.73186 -0.246119)
(100.214 -1.72892 -0.245737)
(100.213 -1.72687 -0.245415)
(100.212 -1.72521 -0.245235)
(100.21 -1.72347 -0.245294)
(100.21 -1.72113 -0.245708)
(100.211 -1.71765 -0.246605)
(100.215 -1.71257 -0.248123)
(100.229 -1.70596 -0.25042)
(100.004 0.0359587 0.000432053)
(100.02 0.074543 0.000818745)
(100.049 0.119409 0.00102292)
(100.096 0.174827 0.000923293)
(100.165 0.245808 0.000336623)
(100.265 0.338137 -0.00107414)
(100.413 0.458043 -0.00387132)
(100.634 0.609906 -0.00897837)
(100.97 0.78977 -0.0179069)
(101.46 0.872641 -0.0326381)
(102.104 0.77175 -0.055098)
(102.786 0.236671 -0.0858172)
(103.147 -0.761596 -0.119703)
(102.898 -1.60288 -0.149815)
(102.248 -1.91673 -0.179761)
(101.608 -1.92659 -0.20395)
(101.153 -1.84342 -0.220779)
(100.857 -1.74005 -0.231981)
(100.661 -1.64104 -0.23929)
(100.524 -1.55238 -0.243783)
(100.43 -1.47399 -0.246237)
(100.368 -1.40232 -0.24721)
(100.328 -1.343 -0.247142)
(100.301 -1.29355 -0.246609)
(100.283 -1.25354 -0.245914)
(100.271 -1.22174 -0.245181)
(100.262 -1.19655 -0.244495)
(100.256 -1.17679 -0.243921)
(100.251 -1.1616 -0.243506)
(100.247 -1.15024 -0.24328)
(100.243 -1.14205 -0.243263)
(100.239 -1.13643 -0.24347)
(100.235 -1.13284 -0.243909)
(100.231 -1.13076 -0.244584)
(100.227 -1.12963 -0.245507)
(100.224 -1.12899 -0.246689)
(100.222 -1.12835 -0.248156)
(100.222 -1.12726 -0.249944)
(100.225 -1.12547 -0.252107)
(100.231 -1.12305 -0.254721)
(100.005 0.0228194 0.000273419)
(100.025 0.0471678 0.000431845)
(100.061 0.0754478 0.000353257)
(100.119 0.109967 -0.000117129)
(100.202 0.153593 -0.00126316)
(100.32 0.2087 -0.00343405)
(100.486 0.276706 -0.00722297)
(100.716 0.355045 -0.0134764)
(101.028 0.430665 -0.0233721)
(101.431 0.464076 -0.0382612)
(101.899 0.398711 -0.0593081)
(102.333 0.159156 -0.086788)
(102.557 -0.265504 -0.117952)
(102.439 -0.700393 -0.148198)
(102.045 -0.949948 -0.175766)
(101.58 -1.01361 -0.198149)
(101.194 -0.987671 -0.214893)
(100.915 -0.935334 -0.226682)
(100.717 -0.880372 -0.23475)
(100.571 -0.829447 -0.239994)
(100.465 -0.785029 -0.243086)
(100.388 -0.74979 -0.244578)
(100.333 -0.723779 -0.244974)
(100.294 -0.705106 -0.244626)
(100.267 -0.692056 -0.24382)
(100.248 -0.683382 -0.242783)
(100.234 -0.677968 -0.241694)
(100.225 -0.674961 -0.240677)
(100.218 -0.673806 -0.239805)
(100.212 -0.674111 -0.239123)
(100.208 -0.675529 -0.238657)
(100.205 -0.677764 -0.238422)
(100.202 -0.68054 -0.238417)
(100.199 -0.683633 -0.238639)
(100.197 -0.686526 -0.239114)
(100.196 -0.689121 -0.239816)
(100.197 -0.691214 -0.240742)
(100.199 -0.692598 -0.241915)
(100.205 -0.693152 -0.243401)
(100.219 -0.69276 -0.245384)
(100.006 0.00781803 0.00017936)
(100.027 0.0161061 0.000267319)
(100.067 0.0257683 1.27809e-05)
(100.13 0.0374287 -0.000598583)
(100.22 0.0521077 -0.00203034)
(100.345 0.0703486 -0.00456944)
(100.517 0.0921359 -0.00884394)
(100.746 0.115963 -0.0155773)
(101.04 0.13667 -0.0259156)
(101.392 0.14155 -0.0406499)
(101.768 0.110498 -0.0604772)
(102.092 0.0226829 -0.0852643)
(102.258 -0.118439 -0.113346)
(102.19 -0.265066 -0.141818)
(101.912 -0.359089 -0.167448)
(101.544 -0.389405 -0.188887)
(101.202 -0.384829 -0.205642)
(100.934 -0.369938 -0.21777)
(100.735 -0.353916 -0.22624)
(100.586 -0.338977 -0.231837)
(100.474 -0.325771 -0.235228)
(100.393 -0.314731 -0.236943)
(100.335 -0.30538 -0.237441)
(100.294 -0.297134 -0.237034)
(100.265 -0.289451 -0.236162)
(100.245 -0.28216 -0.235081)
(100.231 -0.275205 -0.233958)
(100.222 -0.268579 -0.232923)
(100.214 -0.262324 -0.232068)
(100.209 -0.256498 -0.231451)
(100.204 -0.251142 -0.231108)
(100.2 -0.246274 -0.231046)
(100.196 -0.241898 -0.231249)
(100.194 -0.23803 -0.231651)
(100.191 -0.234413 -0.232438)
(100.19 -0.231107 -0.233457)
(100.19 -0.228081 -0.23466)
(100.191 -0.225288 -0.236059)
(100.196 -0.222802 -0.237711)
(100.205 -0.221101 -0.239807)
(99.9935 0.00585079 0.00693521)
(99.9712 0.0118461 0.0146379)
(99.93 0.0180927 0.0236822)
(99.8687 0.0246087 0.0351146)
(99.7861 0.0311141 0.0499789)
(99.6801 0.0368181 0.0695114)
(99.55 0.0400346 0.0948357)
(99.3982 0.0378134 0.127453)
(99.2336 0.0254815 0.168775)
(99.0755 -0.003287 0.219209)
(98.9562 -0.0541896 0.277939)
(98.916 -0.125719 0.342294)
(98.9808 -0.19886 0.408179)
(99.1419 -0.254543 0.470255)
(99.357 -0.282388 0.524375)
(99.5779 -0.291491 0.569522)
(99.777 -0.290429 0.605835)
(99.9454 -0.284092 0.634291)
(100.083 -0.275602 0.655753)
(100.193 -0.26713 0.671306)
(100.279 -0.259531 0.681785)
(100.346 -0.252967 0.688529)
(100.396 -0.247361 0.692905)
(100.436 -0.242968 0.695451)
(100.466 -0.23967 0.696762)
(100.49 -0.237208 0.697487)
(100.509 -0.235506 0.697704)
(100.524 -0.234477 0.697746)
(100.535 -0.233968 0.698023)
(100.543 -0.233857 0.698651)
(100.548 -0.23407 0.699618)
(100.552 -0.234569 0.700838)
(100.555 -0.235304 0.702439)
(100.557 -0.236246 0.704339)
(100.559 -0.237378 0.706355)
(100.561 -0.238707 0.708272)
(100.564 -0.24023 0.709806)
(100.569 -0.241911 0.710899)
(100.577 -0.24376 0.711325)
(100.592 -0.245891 0.710823)
(99.9936 0.017395 0.00679748)
(99.9719 0.0352675 0.0142978)
(99.9314 0.0540827 0.023262)
(99.8706 0.0740114 0.0346133)
(99.7876 0.0944212 0.0494063)
(99.6788 0.113247 0.0689305)
(99.5412 0.125839 0.0946432)
(99.3746 0.123513 0.128249)
(99.1845 0.0917783 0.171403)
(98.9889 0.00996699 0.225104)
(98.8276 -0.139132 0.288979)
(98.7672 -0.349069 0.359864)
(98.8514 -0.571896 0.432746)
(99.0582 -0.735718 0.500578)
(99.3181 -0.818282 0.557985)
(99.5675 -0.849054 0.604443)
(99.7813 -0.84943 0.641109)
(99.9561 -0.833428 0.669293)
(100.095 -0.810943 0.690068)
(100.202 -0.787519 0.704545)
(100.284 -0.765918 0.714006)
(100.346 -0.747926 0.720172)
(100.393 -0.733685 0.724223)
(100.428 -0.722637 0.726707)
(100.455 -0.713036 0.728074)
(100.476 -0.704097 0.728842)
(100.493 -0.696187 0.729402)
(100.507 -0.689657 0.73007)
(100.517 -0.684499 0.731049)
(100.525 -0.680657 0.732391)
(100.531 -0.678114 0.734069)
(100.535 -0.676854 0.736027)
(100.538 -0.676786 0.738223)
(100.541 -0.677855 0.740553)
(100.543 -0.680013 0.742856)
(100.546 -0.683196 0.744941)
(100.549 -0.687351 0.746598)
(100.553 -0.692335 0.747643)
(100.56 -0.697958 0.747872)
(100.572 -0.703943 0.747122)
(99.994 0.0284438 0.0064978)
(99.9734 0.0578404 0.0136899)
(99.9347 0.0893191 0.0223519)
(99.8757 0.123587 0.0333791)
(99.7928 0.160316 0.0478705)
(99.6801 0.197217 0.0672484)
(99.5302 0.228135 0.0932865)
(99.3357 0.239695 0.12815)
(99.0938 0.205692 0.17425)
(98.8208 0.0783448 0.233731)
(98.5746 -0.250077 0.307287)
(98.4636 -0.706465 0.391372)
(98.5829 -1.12249 0.475824)
(98.883 -1.36521 0.552237)
(99.2242 -1.46681 0.613731)
(99.5231 -1.49738 0.661562)
(99.7655 -1.48209 0.698572)
(99.9541 -1.44508 0.726368)
(100.096 -1.40162 0.745897)
(100.201 -1.3583 0.758317)
(100.276 -1.31969 0.765138)
(100.33 -1.2848 0.768863)
(100.369 -1.26343 0.771282)
(100.399 -1.25317 0.773007)
(100.424 -1.24624 0.774147)
(100.443 -1.23947 0.774971)
(100.458 -1.23299 0.77586)
(100.469 -1.22722 0.777074)
(100.477 -1.22231 0.778708)
(100.483 -1.21839 0.780736)
(100.486 -1.21561 0.783058)
(100.489 -1.21413 0.785543)
(100.489 -1.214 0.788057)
(100.489 -1.21527 0.790447)
(100.488 -1.21795 0.792551)
(100.486 -1.22205 0.794181)
(100.485 -1.22753 0.795134)
(100.484 -1.23431 0.795207)
(100.486 -1.24205 0.794257)
(100.492 -1.24987 0.792373)
(99.9946 0.03849 0.00602971)
(99.9762 0.0786049 0.0127265)
(99.9412 0.122466 0.0208208)
(99.8867 0.171916 0.0311787)
(99.8074 0.228014 0.0449155)
(99.6941 0.290192 0.0635398)
(99.533 0.354266 0.0890987)
(99.3036 0.407864 0.124289)
(98.9771 0.421668 0.172623)
(98.4896 0.224057 0.238502)
(98.2318 0.0409805 0.271852)
(97.8891 -0.621332 0.349771)
(97.9533 -1.42756 0.432687)
(98.4275 -1.95733 0.509344)
(98.9245 -2.12215 0.569165)
(99.3194 -2.16444 0.613352)
(99.6377 -2.13185 0.647404)
(99.8744 -2.06153 0.673407)
(100.043 -1.9834 0.691739)
(100.163 -1.91213 0.703172)
(100.301 -1.93555 0.83219)
(100.333 -1.86544 0.831613)
(100.341 -1.8165 0.828817)
(100.347 -1.78745 0.826313)
(100.356 -1.768 0.825123)
(100.362 -1.75448 0.825454)
(100.364 -1.74554 0.827265)
(100.361 -1.73998 0.830324)
(100.354 -1.73691 0.834257)
(100.344 -1.73589 0.838619)
(100.331 -1.73673 0.84299)
(100.315 -1.73932 0.847016)
(100.295 -1.74356 0.85042)
(100.273 -1.74937 0.852991)
(100.248 -1.75667 0.854562)
(100.221 -1.76545 0.854975)
(100.193 -1.77569 0.854044)
(100.164 -1.7874 0.85156)
(100.137 -1.80037 0.847337)
(100.108 -1.81314 0.841448)
(99.9957 0.046762 0.00538798)
(99.9809 0.0959519 0.0113802)
(99.9523 0.150933 0.0186089)
(99.9067 0.215215 0.0278456)
(99.8379 0.292361 0.0401243)
(99.7348 0.38587 0.0568837)
(99.5782 0.498353 0.0801588)
(99.3359 0.628319 0.112751)
(98.9041 0.762205 0.158456)
(98.5623 0.764181 0.184593)
(97.7582 0.372753 0.251716)
(96.959 -0.693829 0.339127)
(97.051 -2.34456 0.439157)
(98.1652 -2.96792 0.528086)
(98.8803 -3.01731 0.587128)
(99.3531 -2.99352 0.624575)
(99.7213 -2.88351 0.655545)
(99.9639 -2.74891 0.682222)
(100.117 -2.62141 0.702307)
(100.206 -2.51633 0.715075)
(100.256 -2.45867 0.723204)
(100.137 -2.568 0.838508)
(99.9997 -2.55687 0.81946)
(99.8733 -2.53184 0.80014)
(99.7637 -2.50158 0.783152)
(99.662 -2.47406 0.769788)
(99.5655 -2.45054 0.760231)
(99.4741 -2.43034 0.753995)
(99.3871 -2.41318 0.750241)
(99.3034 -2.3991 0.747999)
(99.222 -2.38816 0.746354)
(99.1423 -2.38028 0.744551)
(99.0637 -2.37534 0.74204)
(98.9862 -2.37319 0.738466)
(98.9096 -2.37365 0.733618)
(98.8344 -2.37658 0.727351)
(98.7611 -2.38195 0.719472)
(98.6909 -2.39001 0.709695)
(98.6268 -2.40165 0.697674)
(98.5643 -2.41919 0.683495)
(99.9971 0.0523558 0.00457785)
(99.9875 0.107884 0.00965037)
(99.9686 0.171174 0.0157024)
(99.9375 0.247526 0.023328)
(99.889 0.343475 0.0333331)
(99.8128 0.467979 0.0468336)
(99.6901 0.634216 0.0653781)
(99.4843 0.861843 0.0910729)
(99.0725 1.18136 0.126609)
(98.6659 1.33971 0.147931)
(97.7165 1.47578 0.177285)
(95.6143 0.698626 0.231302)
(94.4108 -3.45497 0.33001)
(98.2272 -4.74227 0.443072)
(98.7484 -3.89238 0.498056)
(99.3212 -3.87331 0.509495)
(99.7362 -3.6891 0.522164)
(99.9127 -3.46255 0.548477)
(99.9381 -3.26022 0.58023)
(99.8479 -3.0755 0.605198)
(98.5725 -2.8569 0.673622)
(95.1406 -2.50817 0.425365)
(95.1894 -2.5939 0.39165)
(95.2527 -2.64105 0.367841)
(95.3047 -2.6679 0.350797)
(95.3512 -2.68623 0.338914)
(95.3998 -2.69905 0.330777)
(95.4527 -2.70749 0.325092)
(95.5089 -2.71293 0.320868)
(95.567 -2.71675 0.317441)
(95.626 -2.71999 0.314382)
(95.685 -2.7233 0.311428)
(95.7436 -2.72707 0.308338)
(95.8016 -2.73147 0.304916)
(95.8589 -2.73651 0.300946)
(95.9154 -2.74212 0.296107)
(95.9712 -2.74826 0.289901)
(96.0262 -2.75513 0.281551)
(96.0798 -2.76361 0.269825)
(96.1427 -2.77662 0.252634)
(99.999 0.0543586 0.00370359)
(99.9957 0.112346 0.00771098)
(99.9891 0.179376 0.0123376)
(99.9776 0.261981 0.0179471)
(99.9587 0.368825 0.0249838)
(99.9276 0.513037 0.0339957)
(99.876 0.716014 0.0456051)
(99.7891 1.01541 0.0602801)
(99.618 1.48325 0.0777563)
(99.3508 1.87772 0.0876946)
(98.6312 2.80331 0.0954623)
(95.47 5.77591 0.090277)
(77.1869 -4.51906 0.094769)
(44.2432 -0.83728 0.070118)
(70.2641 -2.9889 -0.366189)
(75.6143 -2.65412 -0.417743)
(79.4823 -2.68046 -0.427948)
(82.6339 -2.80437 -0.429311)
(85.3283 -2.98459 -0.433354)
(92.8425 -3.76344 -0.617346)
(96.3631 -3.41801 -0.672415)
(96.5322 -3.30064 -0.654014)
(96.7016 -3.21511 -0.637567)
(96.8347 -3.15077 -0.624562)
(96.9417 -3.09918 -0.614787)
(97.0346 -3.05642 -0.60696)
(97.1191 -3.02052 -0.59981)
(97.1977 -2.99022 -0.592356)
(97.2722 -2.96467 -0.583935)
(97.3445 -2.94325 -0.574252)
(97.4157 -2.92547 -0.563362)
(97.4865 -2.91085 -0.551596)
(97.5572 -2.89888 -0.539491)
(97.6278 -2.88902 -0.527696)
(97.698 -2.88068 -0.51694)
(97.7673 -2.8732 -0.508078)
(97.8352 -2.86576 -0.502111)
(97.9008 -2.85713 -0.500392)
(97.9778 -2.84476 -0.504944)
(100.001 0.0522174 0.00282333)
(100.005 0.108051 0.00569307)
(100.011 0.173036 0.00879962)
(100.022 0.253845 0.0122294)
(100.037 0.359353 0.0160111)
(100.058 0.502769 0.0200519)
(100.093 0.704958 0.0239102)
(100.154 1.00094 0.0263271)
(100.295 1.45188 0.0242429)
(100.342 1.85692 0.0209571)
(100.611 2.8311 0.00458469)
(102.407 5.3477 -0.0586272)
(110.994 4.13 -0.209612)
(109.048 -6.61484 -0.285098)
(102.752 -6.78641 -0.380002)
(101.09 -4.98014 -0.440681)
(100.643 -3.98937 -0.480206)
(100.481 -3.44925 -0.505154)
(100.412 -3.13661 -0.518717)
(100.359 -2.95548 -0.524642)
(100.278 -2.7872 -0.609471)
(100.308 -2.37964 -0.759511)
(100.297 -2.27366 -0.757203)
(100.288 -2.20927 -0.751404)
(100.279 -2.16964 -0.745254)
(100.269 -2.14191 -0.740043)
(100.259 -2.1217 -0.735893)
(100.25 -2.10774 -0.732699)
(100.242 -2.09914 -0.730292)
(100.234 -2.095 -0.728437)
(100.227 -2.09456 -0.726899)
(100.22 -2.09713 -0.725521)
(100.213 -2.10203 -0.724239)
(100.208 -2.10856 -0.723077)
(100.203 -2.11598 -0.722212)
(100.199 -2.12351 -0.721925)
(100.197 -2.13029 -0.722656)
(100.196 -2.13524 -0.724975)
(100.197 -2.13682 -0.72955)
(100.207 -2.13237 -0.736723)
(100.003 0.0458058 0.00181044)
(100.013 0.0948283 0.00367454)
(100.032 0.151887 0.00540587)
(100.063 0.222743 0.0068057)
(100.108 0.314666 0.00755927)
(100.176 0.437496 0.00705178)
(100.279 0.605045 0.00407817)
(100.443 0.836325 -0.00363917)
(100.755 1.15517 -0.0203922)
(100.978 1.39067 -0.0325455)
(101.818 1.83881 -0.0753991)
(103.419 1.73591 -0.156859)
(105.187 -0.259228 -0.271369)
(104.736 -2.84265 -0.388965)
(102.955 -3.58776 -0.48069)
(101.742 -3.37826 -0.542974)
(101.115 -3.03234 -0.583429)
(100.78 -2.73929 -0.608351)
(100.587 -2.51934 -0.622835)
(100.461 -2.35528 -0.630786)
(100.372 -2.22177 -0.635142)
(100.281 -1.91145 -0.782045)
(100.252 -1.86964 -0.777973)
(100.235 -1.83766 -0.772475)
(100.225 -1.81362 -0.767038)
(100.221 -1.79412 -0.762106)
(100.219 -1.77765 -0.75771)
(100.218 -1.76401 -0.753795)
(100.219 -1.75305 -0.750279)
(100.219 -1.74453 -0.747071)
(100.219 -1.73809 -0.744107)
(100.219 -1.73341 -0.741371)
(100.219 -1.73009 -0.738904)
(100.218 -1.72769 -0.736773)
(100.216 -1.7257 -0.735133)
(100.215 -1.72358 -0.734182)
(100.214 -1.72071 -0.734197)
(100.215 -1.71643 -0.73552)
(100.218 -1.7102 -0.738534)
(100.23 -1.70218 -0.743532)
(100.004 0.0356097 0.00115861)
(100.02 0.07369 0.00217692)
(100.05 0.117874 0.00272619)
(100.096 0.172377 0.00244656)
(100.164 0.241968 0.000770812)
(100.264 0.332334 -0.00325498)
(100.409 0.449537 -0.01122)
(100.625 0.597835 -0.0257574)
(100.953 0.7733 -0.0511726)
(101.431 0.855137 -0.0936249)
(102.059 0.758366 -0.159319)
(102.725 0.23722 -0.251581)
(103.078 -0.735455 -0.360867)
(102.834 -1.56237 -0.474961)
(102.2 -1.87428 -0.570189)
(101.578 -1.88497 -0.638865)
(101.136 -1.80404 -0.684909)
(100.848 -1.70374 -0.714794)
(100.656 -1.60767 -0.733616)
(100.521 -1.52133 -0.744517)
(100.428 -1.44472 -0.749569)
(100.366 -1.37425 -0.750202)
(100.325 -1.31657 -0.74905)
(100.298 -1.26859 -0.747105)
(100.279 -1.22936 -0.744516)
(100.267 -1.19769 -0.741518)
(100.258 -1.17223 -0.738474)
(100.253 -1.15205 -0.735673)
(100.249 -1.13645 -0.733296)
(100.246 -1.1248 -0.731446)
(100.243 -1.11651 -0.730185)
(100.24 -1.11099 -0.729537)
(100.238 -1.10768 -0.729511)
(100.235 -1.10601 -0.73009)
(100.232 -1.10539 -0.731288)
(100.229 -1.10524 -0.733133)
(100.227 -1.105 -0.735696)
(100.227 -1.10413 -0.739093)
(100.229 -1.1023 -0.74346)
(100.233 -1.09963 -0.748801)
(100.006 0.0225652 0.000668328)
(100.025 0.0466275 0.00105066)
(100.062 0.0744809 0.000781389)
(100.119 0.108508 -0.000615407)
(100.201 0.151279 -0.00391909)
(100.318 0.205267 -0.0101805)
(100.482 0.271851 -0.021079)
(100.707 0.348583 -0.0390891)
(101.012 0.422659 -0.0676327)
(101.406 0.45593 -0.110848)
(101.863 0.393068 -0.172501)
(102.286 0.159751 -0.253578)
(102.506 -0.256412 -0.34827)
(102.394 -0.682503 -0.444365)
(102.01 -0.925675 -0.529025)
(101.558 -0.987288 -0.594414)
(101.183 -0.961629 -0.641163)
(100.911 -0.910594 -0.673477)
(100.715 -0.857166 -0.695242)
(100.571 -0.807708 -0.709072)
(100.463 -0.764565 -0.716852)
(100.385 -0.730337 -0.720192)
(100.328 -0.705103 -0.720825)
(100.287 -0.686724 -0.719624)
(100.259 -0.67364 -0.717087)
(100.239 -0.664736 -0.713722)
(100.226 -0.658995 -0.71003)
(100.217 -0.65563 -0.706397)
(100.211 -0.654139 -0.703079)
(100.208 -0.654162 -0.700238)
(100.206 -0.655368 -0.697976)
(100.205 -0.657457 -0.696341)
(100.205 -0.660124 -0.695347)
(100.204 -0.663083 -0.694984)
(100.204 -0.665988 -0.695281)
(100.204 -0.668576 -0.696203)
(100.205 -0.670568 -0.697754)
(100.208 -0.671743 -0.700003)
(100.213 -0.67197 -0.703078)
(100.224 -0.671269 -0.707188)
(100.006 0.00772321 0.000423986)
(100.027 0.0159425 0.000532965)
(100.068 0.0254253 -0.000188766)
(100.13 0.0369366 -0.00209484)
(100.219 0.0512849 -0.00622599)
(100.344 0.0691305 -0.0135148)
(100.513 0.0904669 -0.0256468)
(100.738 0.113843 -0.0449263)
(101.026 0.134118 -0.0744453)
(101.371 0.139144 -0.11706)
(101.739 0.109325 -0.17509)
(102.056 0.0243045 -0.248323)
(102.221 -0.112887 -0.332119)
(102.157 -0.255893 -0.417497)
(101.887 -0.347183 -0.49466)
(101.529 -0.376721 -0.557434)
(101.195 -0.37236 -0.604432)
(100.932 -0.357913 -0.637914)
(100.734 -0.342374 -0.66102)
(100.584 -0.327845 -0.6761)
(100.471 -0.314971 -0.68499)
(100.387 -0.304168 -0.689233)
(100.326 -0.294916 -0.690242)
(100.283 -0.286597 -0.689063)
(100.253 -0.278828 -0.686614)
(100.233 -0.271469 -0.683462)
(100.219 -0.264454 -0.680047)
(100.211 -0.257785 -0.67674)
(100.206 -0.251526 -0.673826)
(100.203 -0.24575 -0.671494)
(100.201 -0.240503 -0.669855)
(100.201 -0.235802 -0.668956)
(100.2 -0.231633 -0.668782)
(100.2 -0.227948 -0.66925)
(100.2 -0.224649 -0.670551)
(100.2 -0.221669 -0.672476)
(100.201 -0.218931 -0.674944)
(100.202 -0.216376 -0.677979)
(100.206 -0.214066 -0.681661)
(100.212 -0.212491 -0.686138)
(99.9937 0.00575221 0.0112792)
(99.9724 0.0116473 0.0236151)
(99.9329 0.0178138 0.0382692)
(99.8745 0.0242545 0.0566949)
(99.796 0.0307088 0.0805195)
(99.6955 0.0364492 0.111704)
(99.5724 0.0399263 0.152384)
(99.4292 0.0383615 0.204963)
(99.2743 0.0273404 0.271644)
(99.1256 0.000928907 0.353483)
(99.0135 -0.0464008 0.44947)
(98.9756 -0.112831 0.555247)
(99.0362 -0.181202 0.66299)
(99.1877 -0.233098 0.764227)
(99.3904 -0.258778 0.852055)
(99.5995 -0.266892 0.924593)
(99.7892 -0.265465 0.982653)
(99.9512 -0.259179 1.02801)
(100.085 -0.251038 1.06237)
(100.193 -0.243136 1.08747)
(100.28 -0.236072 1.105)
(100.348 -0.229748 1.11697)
(100.401 -0.224125 1.12529)
(100.442 -0.2196 1.13121)
(100.474 -0.216176 1.13537)
(100.498 -0.213562 1.13818)
(100.517 -0.211571 1.13999)
(100.531 -0.210103 1.14125)
(100.54 -0.209057 1.1424)
(100.546 -0.208346 1.14373)
(100.549 -0.207924 1.14541)
(100.55 -0.207782 1.14755)
(100.55 -0.20791 1.1502)
(100.55 -0.208302 1.15331)
(100.549 -0.208948 1.15672)
(100.549 -0.209855 1.16017)
(100.551 -0.211025 1.16335)
(100.554 -0.212443 1.16591)
(100.561 -0.214119 1.16739)
(100.574 -0.216156 1.16716)
(99.9939 0.0170966 0.011035)
(99.9731 0.0346669 0.0231294)
(99.9344 0.0531938 0.0375654)
(99.8766 0.0728285 0.0557925)
(99.7978 0.0929925 0.0794984)
(99.695 0.111784 0.110797)
(99.5653 0.124882 0.15216)
(99.4086 0.1241 0.206467)
(99.2301 0.0957226 0.276627)
(99.0467 0.0201831 0.364727)
(98.8959 -0.119057 0.470518)