/*--------------------------------*- C++ -*----------------------------------*\
| =========                 |                                                 |
| \\      /  F ield         | OpenFOAM: The Open Source CFD Toolbox           |
|  \\    /   O peration     | Version:  2306                                  |
|   \\  /    A nd           | Website:  www.openfoam.com                      |
|    \\/     M anipulation  |                                                 |
\*---------------------------------------------------------------------------*/
FoamFile
{
    version     2.0;
    format      ascii;
    arch        "LSB;label=32;scalar=64";
    class       volVectorField;
    location    "0.75";
    object      Force;
}
// * * * * * * * * * * * * * * * * * * * * * * * * * * * * * * * * * * * * * //

dimensions      [1 1 -2 0 0 0 0];

internalField   uniform (0 0 0);

boundaryField
{
    walls
    {
        type            calculated;
        value           uniform (0 0 0);
    }
    inlet
    {
        type            calculated;
        value           uniform (0 0 0);
    }
    outlet
    {
        type            calculated;
        value           uniform (0 0 0);
    }
    NASA
    {
        type            calculated;
        value           nonuniform List<vector> 
14179
(
(-0.01475 -0.135602 1.09904e-05)
(-0.0132185 -0.109225 8.03782e-06)
(-0.0671296 -0.542749 0.00106431)
(-0.101476 -0.816162 0.00384759)
(-0.0670824 -0.542817 0.00055684)
(-0.110142 -0.885787 0.00423092)
(0.219603 0.953205 -0.000412559)
(0.0968875 0.486355 -8.40127e-05)
(0.675824 3.31351 0.00339628)
(0.102574 0.51493 -8.59001e-05)
(-0.00114408 -0.0115021 6.9648e-06)
(-0.0178962 -0.146508 0.000679181)
(0.129958 0.649101 -0.00281732)
(-0.0356811 -0.324451 0.00162307)
(0.0616233 0.30744 -0.00130206)
(1.37695 0.928865 0.00283545)
(1.38857 0.920373 -0.000485421)
(0.0216721 0.121429 -6.67727e-05)
(0.153782 0.912583 -0.000136194)
(1.27741 0.846722 -0.00418372)
(-0.0173349 -0.242465 -7.45335e-07)
(-0.0216203 -0.200956 -0.000105768)
(-0.0198249 -0.27513 -0.000214322)
(-0.00887624 -0.0646018 4.82692e-06)
(-0.0134058 -0.110823 3.02616e-05)
(-0.00959442 -0.0698315 2.45644e-05)
(-0.0129545 -0.106701 0.000493346)
(-0.015164 -0.108664 0.000519438)
(-0.013339 -0.121835 0.000562207)
(-0.0156631 -0.214973 0.00406706)
(0.0467655 0.204232 -1.33872e-06)
(0.052511 0.247605 -7.33345e-06)
(0.056468 0.266256 -0.000106803)
(0.0461329 0.20094 -2.53077e-05)
(0.0731945 0.268551 -2.1168e-05)
(0.0701716 0.257287 -5.59713e-05)
(0.0398858 0.144765 -1.07327e-05)
(0.03726 0.135131 -2.89145e-05)
(-0.0019698 -0.00945786 0.000160255)
(-0.0129846 -0.0631901 0.000767456)
(0.167853 0.612986 -0.00217035)
(0.0979573 0.353174 -0.000852024)
(0.104347 0.523561 -0.000126575)
(-0.00616992 -0.0433268 4.68714e-06)
(-0.0056075 -0.0393749 2.42915e-06)
(0.165738 0.832129 -0.000208594)
(-0.0098226 -0.0679979 0.000358381)
(0.0964587 0.481578 -0.00137991)
(0.0896095 0.447813 -0.00141405)
(0.107501 0.439231 -0.000393467)
(0.0843444 0.313548 -2.61421e-05)
(0.084 0.312278 -7.11252e-05)
(-0.0614191 1.49806 -0.000221611)
(1.38594 0.92152 -0.000771591)
(-0.0566413 1.39156 7.93356e-05)
(-0.00252068 1.22762 -0.000183295)
(0.0647621 0.980186 1.37336e-05)
(0.0656017 0.991262 -0.000246926)
(-0.00228047 1.08264 -1.10254e-05)
(0.0858219 0.337328 -4.65275e-05)
(0.154792 0.917692 -0.000250093)
(0.00775699 0.0282278 -1.03502e-05)
(-0.0229137 0.569145 -0.00168548)
(0.923544 0.630343 0.0756575)
(-0.000744079 0.534191 -0.00187568)
(0.0270085 0.409792 -0.00132135)
(0.126918 0.742848 0.00560655)
(-0.0148665 -0.148702 1.43965e-05)
(-0.0146912 -0.135148 2.16629e-05)
(-0.0998535 -0.803227 0.00378191)
(-0.0116825 -0.0926029 7.57174e-06)
(-0.0131961 -0.109049 1.71873e-05)
(1.32276 0.875755 -0.00497546)
(1.27578 0.84492 -0.0045867)
(0.344825 2.04471 -0.0104708)
(0.259541 1.53342 -0.00724117)
(-0.111546 -0.898321 0.00281322)
(-0.0562896 -0.350368 0.00171273)
(-0.0553494 -0.34692 0.00174155)
(-0.042235 -0.247822 0.00123532)
(0.155894 0.672352 -0.00333903)
(0.17467 0.7552 -0.00367401)
(0.762093 1.30847 -5.04511e-05)
(0.762532 1.30728 -0.000318526)
(0.0991157 0.497364 -0.000106091)
(0.0891834 0.428457 -6.40911e-05)
(-0.000479769 -0.00445234 -2.84083e-07)
(0.00124709 0.00607227 -3.15026e-07)
(0.00127871 0.00625164 -2.26105e-06)
(-0.000470497 -0.00438707 4.61035e-07)
(0.105819 0.531155 -9.17626e-05)
(0.097351 0.502066 -6.73439e-05)
(-0.0201175 -0.164442 0.000817489)
(-0.0135081 -0.096849 0.000502963)
(-0.0203347 -0.145221 0.000720253)
(-0.0123296 -0.0850617 0.000469714)
(-0.0180866 -0.124079 0.000572266)
(0.0849664 0.423958 -0.00208737)
(-0.0201229 -0.183098 0.000892845)
(-0.0248362 -0.341112 0.00180339)
(-0.020961 -0.29439 0.000832832)
(0.0796815 0.397963 -0.00193129)
(1.37399 0.922797 -0.00266004)
(0.094622 0.557802 -0.000100591)
(0.104007 0.581669 -4.70708e-05)
(0.10422 0.582583 -9.91772e-05)
(0.175022 1.21857 -0.000218017)
(0.0999319 0.592771 -0.000101112)
(0.153619 0.91134 -0.000156738)
(0.0248861 0.0235262 2.07147e-05)
(0.352394 -0.129864 0.0035331)
(0.362752 -0.143823 0.00170431)
(0.0131061 0.0125852 -3.31919e-05)
(-0.00641801 -0.02759 0.000209264)
(0.0221215 0.0815635 -0.000342151)
(0.00269423 0.00933464 2.67487e-05)
(0.0222898 0.0897602 -0.000271364)
(-0.00927901 -0.0414376 0.000222039)
(-0.00150786 -0.00880612 0.000123731)
(0.00457876 0.0191627 -3.78225e-05)
(-0.0179249 -0.0867043 0.000426799)
(-0.00107847 0.731438 -0.00329702)
(0.0406222 0.606853 -0.00282678)
(-0.00157289 0.980244 -0.00448799)
(0.0317278 0.480309 -0.00254919)
(-0.0347521 0.868565 -0.00410638)
(1.10429 0.74285 -0.00395343)
(-0.0470981 1.16458 -0.00528752)
(0.109015 0.645189 -0.00403988)
(0.154916 0.606673 -0.00315877)
(0.116682 0.456322 -0.00214504)
(0.107387 0.39185 -0.00182262)
(0.151509 0.553555 -0.00257727)
(0.0624677 0.22539 -0.00104633)
(0.0850214 0.307294 -0.00150155)
(-0.0133974 -0.150902 6.07993e-06)
(-0.0172185 -0.240505 3.18918e-05)
(-0.0107235 -0.0825553 7.05978e-06)
(-0.00872382 -0.0634974 9.07659e-06)
(0.000622654 0.00184547 0.537855)
(-0.0129813 -0.102143 0.000479346)
(0.000592739 0.00176321 0.511534)
(-0.0144399 -0.110024 0.000526888)
(0.000913128 0.00214613 0.581629)
(-0.0130707 -0.130493 0.00066754)
(0.00116675 0.00259429 0.582559)
(-0.0121824 -0.140328 0.00150994)
(0.0523055 0.246621 -4.93454e-05)
(0.039036 0.177535 -1.56325e-05)
(0.0393503 0.178986 -3.66583e-05)
(0.0463523 0.201869 -3.06794e-05)
(0.045601 0.200842 -1.7756e-05)
(0.0458362 0.2019 -3.79533e-05)
(0.0742803 0.272439 -4.23632e-05)
(0.0238833 0.118776 -2.25051e-05)
(0.0213199 0.108154 -2.06649e-05)
(0.0403204 0.146298 -1.99845e-05)
(0.0352792 0.124167 -9.48191e-06)
(-0.00638986 -0.029257 0.000288077)
(-0.00541252 -0.0257954 0.00030785)
(0.000459354 0.00142429 0.320711)
(0.000457527 0.00137345 0.313673)
(0.000446853 0.00134789 0.310106)
(0.000330396 0.00134535 0.355463)
(0.0920601 0.313696 -0.000508318)
(0.157643 0.551207 0.00228482)
(-2.96649e-06 0.0013659 0.33372)
(0.000369964 0.000734303 0.301788)
(0.000122214 0.000471413 0.106723)
(0.0806323 0.283034 -0.000659646)
(0.284857 0.66178 -1.21434e-05)
(0.167431 0.590289 4.52862e-05)
(0.165754 0.584423 -6.15657e-05)
(0.0823432 0.384582 -4.79982e-05)
(0.0825801 0.385605 -7.2462e-05)
(0.139257 0.665206 -9.1291e-05)
(0.0765206 0.340678 -5.4219e-05)
(0.0826703 0.375239 -4.11218e-05)
(0.0829264 0.376232 -6.46437e-05)
(0.0764931 0.340737 -3.12563e-05)
(-0.00506189 -0.0354713 4.32788e-06)
(-0.00609417 -0.0427991 4.97545e-06)
(0.153507 0.81306 -8.13157e-05)
(0.269056 0.464083 0.00999568)
(0.00117237 0.00474851 0.869315)
(0.00035121 0.00249508 0.41478)
(0.0491098 0.142864 -0.000282801)
(-0.0117888 -0.0735453 0.000432871)
(-0.0118405 -0.0747559 0.000580681)
(0.00105516 0.00291571 0.683653)
(0.000372462 0.000801438 0.310756)
(0.0956511 0.49095 -0.000430443)
(0.000576859 0.000862573 0.37478)
(0.139221 0.73176 0.00314848)
(0.000600228 0.00165859 0.348126)
(0.000449959 0.00143507 0.330391)
(-0.000279358 0.00117976 0.353864)
(7.04064e-05 0.00060418 0.11214)
(0.0799071 0.381685 -0.00123828)
(0.102447 0.47595 -0.000490534)
(0.000486484 0.000556281 0.205602)
(9.78932e-05 0.000689914 0.107359)
(0.16828 0.707223 -0.000259161)
(0.0843697 0.313642 -4.07253e-05)
(0.0803409 0.30755 -3.19592e-05)
(0.0957644 0.3904 -6.0777e-05)
(0.0672273 0.270775 -1.79751e-05)
(-0.863761 2.76131 -0.0211792)
(-0.0589306 1.44301 -7.69555e-05)
(-0.185233 1.73112 0.000752892)
(0.0630316 0.952301 -0.000118709)
(0.0474094 1.0148 -6.89623e-05)
(-0.00235967 1.15484 -4.87422e-05)
(0.0260509 0.985519 -4.96793e-05)
(0.10377 1.13952 -0.00012745)
(0.13074 1.68884 -0.000113781)
(0.128891 1.66463 -0.000171754)
(0.103915 1.1414 -9.87846e-05)
(0.121737 1.24412 -0.000171348)
(0.130297 1.21282 -4.37514e-05)
(0.133714 1.24494 -0.000212043)
(0.119822 1.22413 -4.53032e-05)
(0.0591828 0.245256 -3.45524e-05)
(0.0535071 0.212344 -3.17243e-05)
(0.085664 0.336643 -4.62166e-05)
(0.109167 0.739557 -0.000152984)
(0.108469 0.68318 -0.000112802)
(-0.000269433 0.00162815 0.571808)
(0.00103671 0.00417153 0.901023)
(0.00125748 0.00412519 0.000123936)
(0.0004961 0.00426362 0.745174)
(0.00234279 0.00808835 0.000109343)
(0.000567599 0.0107577 0.275326)
(-0.0608569 0.583681 -0.00228756)
(0.00759061 0.000288183 1.75083)
(0.000414525 0.00111209 0.304087)
(0.0141429 0.517242 -0.00187992)
(0.000799605 0.00055681 0.245163)
(0.0231936 0.485775 -0.00164679)
(0.0611729 0.526406 -0.00187903)
(0.0608889 0.516465 -0.00182719)
(0.000407385 0.000898736 0.244409)
(0.000438267 0.000984538 0.268945)
(0.0573701 0.529395 -0.0017778)
(0.0521616 0.52632 -0.00147416)
(0.0472295 0.516952 -0.000136502)
(2.28525e-05 -5.19085e-05 0.225659)
(-0.0191974 -0.10539 0.00140844)
(0.000268397 0.00173489 0.507319)
(0.0911045 0.506679 -0.00141109)
(0.000450768 0.00139084 0.32079)
(0.000453201 0.00139672 0.321992)
(0.48392 -0.192785 -0.00369438)
(0.222514 0.210388 0.00170408)
(0.000189234 0.000250105 0.0774134)
(-0.0525985 -0.517187 0.00172897)
(-0.0690443 -0.557739 0.00187411)
(-0.0557098 -0.547291 0.0022719)
(-0.069506 -0.561416 0.00192389)
(-0.0752769 -0.607328 0.00253414)
(-0.0596256 -0.585266 0.00265451)
(-0.0838053 -0.675268 0.00307903)
(0.177262 0.767218 -0.00373591)
(0.444647 2.17735 -0.0103786)
(0.180849 0.783142 -0.00380257)
(0.424245 2.0769 -0.00992649)
(-0.0671376 -0.543129 0.000625488)
(-0.0422228 -0.263359 0.0012657)
(-0.105661 -0.849539 0.00401872)
(-0.0478748 -0.298172 0.00143747)
(1.39191 0.92269 -0.00118012)
(1.3895 0.920991 -0.000543026)
(0.239244 1.03857 -0.000611236)
(0.633635 3.10893 -0.00321588)
(0.596273 2.92526 -0.00188246)
(0.249807 1.08419 -0.00110972)
(0.404013 2.39502 -0.0015741)
(0.441505 2.61756 -0.00274683)
(-0.00157686 -0.0130577 1.46903e-05)
(-0.00121008 -0.0114091 7.90208e-06)
(0.0216767 0.12256 -0.000130294)
(0.022027 0.12402 -8.43524e-05)
(0.0506501 0.219886 -0.000932682)
(0.0372401 0.169224 -0.000715129)
(0.0607879 0.264672 -0.00116283)
(0.0289661 0.130738 -0.000521784)
(-0.109261 -0.879314 0.00419405)
(-0.0693884 -0.504291 0.0024162)
(0.0183565 0.0864359 -0.0002875)
(-0.0104475 -0.058087 0.000338909)
(0.062975 0.229646 -0.00113602)
(0.0708584 0.258361 -0.00125481)
(0.0341893 0.123247 -0.000611715)
(0.0395577 0.142593 -0.000693202)
(0.287178 1.29896 -0.000604289)
(0.17774 0.770943 -0.000170464)
(0.323762 1.53051 -0.000774726)
(0.149099 0.748049 -0.000256217)
(-0.0191937 -0.16149 0.00020878)
(-0.0440079 -0.326056 0.00042111)
(-0.00715386 -0.0522493 -3.43414e-06)
(-0.000236745 -0.00659024 4.80223e-06)
(-0.019258 -0.131817 6.91016e-05)
(-0.0255843 -0.178609 0.000129066)
(0.0965522 0.394809 7.36312e-05)
(0.0836959 0.311199 -0.000163098)
(0.0838796 0.311843 -9.79485e-05)
(0.107921 0.442818 -0.000819977)
(0.164572 0.722949 -0.000345291)
(0.141046 0.650055 -0.000210647)
(0.171831 0.755474 -0.000393582)
(0.180571 0.842119 -0.00023834)
(-0.0026385 1.25267 -0.000215701)
(0.0771039 1.16322 -0.00058849)
(-0.00317507 1.45479 -0.000632632)
(0.0692436 1.04609 -0.000323878)
(-0.0620543 1.51419 -0.000264786)
(1.3875 0.920895 -0.000476694)
(-0.0670221 1.63476 -0.00069891)
(0.474747 4.07109 -0.00275699)
(0.0891543 0.350267 -9.8465e-05)
(0.0859747 0.337598 -0.000156947)
(0.0683092 0.250293 -8.97523e-05)
(0.0686593 0.251708 -6.67917e-05)
(0.0561893 0.29454 -0.000198035)
(0.182625 0.901395 -0.00135285)
(0.0209373 0.116454 -9.086e-05)
(0.0464805 0.249353 -0.000136175)
(0.721626 4.51426 0.000844705)
(0.343022 2.29115 -0.000130396)
(0.0363669 0.13178 -4.45184e-05)
(0.0364489 0.132168 -3.16871e-05)
(1.25912 0.836535 -0.00308752)
(0.0896956 0.621099 -0.00297442)
(0.245093 0.229896 -0.0010989)
(0.496219 -0.205745 0.000446857)
(0.232088 0.218376 -0.0011225)
(0.515703 -0.214191 0.000200566)
(0.0723194 0.26517 -5.25554e-05)
(0.0325383 0.114423 -2.24763e-05)
(0.0385518 0.139824 -2.36861e-05)
(0.284781 0.661635 -3.65642e-05)
(0.274965 0.807214 -0.000141989)
(0.000961441 0.00323878 0.735941)
(0.000391747 0.0017384 0.363675)
(0.000574006 0.000889877 0.383777)
(-0.193493 1.79277 -0.000273851)
(-0.060573 1.47964 -0.000111444)
(1.38208 0.922294 -0.00143015)
(0.0301897 0.0285423 1.8499e-05)
(0.364897 -0.149981 0.000135372)
(0.364464 -0.148182 0.000582814)
(0.0287655 0.027152 6.47471e-06)
(0.000587191 0.0020739 0.549707)
(0.000448881 0.00106101 0.381235)
(0.000411061 0.00114696 0.342267)
(0.000624946 0.00171328 0.365635)
(-0.0910573 -0.733084 0.00341666)
(1.35922 0.899979 -0.0051236)
(1.34569 0.890992 -0.0050695)
(1.31899 0.873279 -0.00496218)
(1.34469 0.890322 -0.00506635)
(0.395361 1.93445 -0.00926476)
(0.174135 0.753085 -0.00367042)
(0.175993 0.761599 -0.00371004)
(0.416751 2.04004 -0.00976009)
(0.268631 1.58737 -0.00753851)
(0.287128 1.69698 -0.00802129)
(-0.0241526 -0.142801 0.000702008)
(-0.0308385 -0.181486 0.000891809)
(-0.0551884 -0.343362 0.0016689)
(-0.0498778 -0.310509 0.0015001)
(-0.0403881 -0.236899 0.00117277)
(-0.033346 -0.195995 0.000964586)
(0.252525 2.14861 -0.0100488)
(0.239637 2.03809 -0.00961617)
(0.0253686 0.0936445 -0.000403873)
(0.0237737 0.0960748 -0.000452821)
(0.0354988 0.144331 -0.000427644)
(0.0334575 0.123738 -0.000559436)
(0.00196538 0.00767768 3.57025e-05)
(0.0276658 0.118395 -0.00041407)
(0.0368409 0.159155 -0.000640282)
(0.0222248 0.0989065 -0.000328863)
(0.0414298 0.153403 -0.000709629)
(0.0455715 0.185826 -0.000599552)
(0.0357384 0.132226 -0.000602774)
(0.0424812 0.634357 -0.00294192)
(-0.00165822 1.02362 -0.00468635)
(-0.0018519 1.12831 -0.00516312)
(0.0467803 0.698825 -0.00324571)
(-0.0545087 1.34661 -0.00611956)
(1.30999 0.867279 -0.00491897)
(-0.0569898 1.40753 -0.00639943)
(-0.0489433 1.20989 -0.00549681)
(-0.053304 1.31704 -0.00598585)
(1.30696 0.865262 -0.00490735)
(-0.00190657 1.15669 -0.00529189)
(0.0510935 0.764376 -0.00354219)
(-0.00201432 1.21272 -0.00555014)
(0.048093 0.718919 -0.00331019)
(0.22551 1.33335 -0.00608821)
(0.410039 2.54992 -0.0141834)
(0.236176 1.57345 -0.00745444)
(0.246205 1.45373 -0.0069758)
(0.403134 2.51435 -0.0118285)
(0.375782 2.34291 -0.011261)
(0.194844 1.29527 -0.00742485)
(-0.0812478 -0.596717 0.0024103)
(-0.10234 -0.82355 0.00402447)
(-0.0664896 -0.44147 0.00213342)
(-0.0564032 -0.351561 0.00173872)
(-0.0796558 -0.534172 0.00249036)
(-0.0526433 -0.328902 0.00166121)
(-0.023522 -0.131006 0.000686117)
(-0.0440186 -0.258711 0.00131365)
(0.00494857 0.0180694 0.000157915)
(-0.0465349 -0.27472 0.00142332)
(0.229917 1.03315 -0.00525783)
(0.178269 0.770347 -0.00372531)
(0.23651 1.11459 -0.00536253)
(0.176194 0.761605 -0.00369193)
(0.223692 1.00858 -0.00487628)
(0.240084 1.13077 -0.0058528)
(0.366134 1.78967 -0.00876883)
(0.10471 0.409421 -0.00193785)
(0.0886062 0.346372 -0.00167131)
(0.0944399 0.344507 -0.00162066)
(0.0745395 0.27179 -0.00131043)
(0.0860364 0.336357 -0.00163656)
(0.0801145 0.313271 -0.00153999)
(0.0548162 0.19772 -0.000927407)
(0.0420724 0.151663 -0.000731303)
(0.124353 0.288253 -0.00134247)
(0.105628 0.244739 -0.00109984)
(-0.0207098 -0.156984 0.000787355)
(-0.0181686 -0.129973 0.000656147)
(0.0806256 0.41214 -0.00225962)
(0.0852034 0.425325 -0.00200503)
(0.123211 0.650546 -0.00371239)
(-0.0193088 -0.190865 0.000861594)
(-0.0199358 -0.181801 0.000890901)
(-0.0172256 -0.189604 0.000606963)
(-0.021301 -0.295434 0.00136073)
(0.0765389 0.36634 -0.00188935)
(0.081107 0.404938 -0.00189917)
(-0.00404364 -0.0171077 0.000135358)
(0.00612365 0.0236359 1.54424e-06)
(-0.00054912 -0.00289389 8.37644e-05)
(0.0130094 0.0476682 -0.00015396)
(0.0175931 0.646124 -0.00294423)
(-0.00129698 0.845272 -0.00386575)
(0.0267937 0.565415 -0.00265859)
(0.0359725 0.538482 -0.00257216)
(-0.105284 1.00083 -0.00591815)
(-0.0410841 1.0187 -0.00466928)
(1.22335 0.817021 -0.00147538)
(-0.458829 1.49326 -0.0062748)
(-0.0449577 1.11259 -0.00506722)
(-0.140667 1.30916 -0.00585131)
(-0.0117518 -0.0614365 0.000354212)
(-0.00855754 -0.044068 0.000266045)
(-0.0103582 -0.0530845 0.000314167)
(-0.00992841 -0.0521111 0.000306073)
(-0.0247624 -0.13594 0.000580597)
(0.000888305 0.00205768 0.389288)
(0.0581559 0.391322 -0.00186422)
(0.0916277 0.634637 -0.003125)
(0.06015 0.404445 -0.00198432)
(0.125166 0.456882 -0.00210622)
(0.151969 0.555005 -0.0025595)
(0.0721256 0.260322 -0.00119676)
(0.0611131 0.213813 -0.000992077)
(0.0801174 0.280805 -0.0014771)
(0.0880616 0.318036 -0.0014784)
(0.448341 -0.187357 -0.00236624)
(0.209007 0.191944 -8.48637e-05)
(0.255731 0.237869 -0.00094063)
(0.521105 -0.217396 -0.000620332)
(0.216431 0.938343 -0.00445912)
(0.560468 2.74711 -0.0127594)
(0.225126 0.97625 -0.00456716)
(0.549515 2.69311 -0.0126201)
(-0.0672049 -0.543456 0.000885721)
(-0.00177462 -0.0142222 2.97157e-05)
(-0.00171483 -0.013853 2.41941e-05)
(0.203784 0.884134 -0.00142599)
(0.674289 3.3076 -0.00659091)
(0.219449 0.952217 -0.00187436)
(-0.061559 -0.447574 0.00211809)
(0.176937 0.778325 -0.000728045)
(0.143725 0.66351 -0.00071387)
(0.177095 0.779081 -0.000838981)
(0.143628 0.662993 -0.000625348)
(0.0702083 0.257287 -0.000228576)
(0.0726075 0.266015 -0.000172304)
(-0.0340343 -0.249629 0.000260006)
(0.162357 0.80377 -0.000863049)
(0.0635601 0.334333 -0.000358428)
(0.0398589 0.144464 -0.000126067)
(0.0400956 0.145272 -8.81822e-05)
(1.38855 0.920446 -0.000433745)
(0.0293133 0.0275524 -2.95198e-06)
(0.370247 -0.153677 1.40731e-05)
(0.0293495 0.0275796 -4.02762e-06)
(0.369674 -0.153369 5.05745e-06)
(-0.0212073 -0.133927 0.000626203)
(-0.0237411 -0.149534 0.000704502)
(-0.0401873 -0.250823 0.00120422)
(-0.0958426 -0.771247 0.0036171)
(-0.0352277 -0.22028 0.00105376)
(0.182637 0.791032 -0.00383795)
(0.194464 0.843015 -0.00407832)
(0.103574 0.453401 -0.0021036)
(0.0777341 0.356903 -0.00165071)
(0.107098 0.468943 -0.00217914)
(0.0743988 0.341456 -0.00157489)
(0.0442568 0.201845 -0.000884257)
(0.0693845 0.302622 -0.00135374)
(0.076292 0.333097 -0.00150757)
(0.0501382 0.229129 -0.00102302)
(0.0575247 0.210441 -0.00106948)
(0.0559352 0.204491 -0.00103916)
(0.0612232 0.223284 -0.00111011)
(0.0574718 0.209699 -0.00105372)
(0.0143621 0.073482 -0.000317301)
(0.0689887 0.338562 -0.00154518)
(-0.0688888 -0.500525 0.00239329)
(0.0259359 0.12438 -0.000487191)
(-0.00667175 -0.0379243 0.000233167)
(0.0330639 0.159944 -0.000668748)
(0.0312266 0.112979 -0.000580068)
(0.0298672 0.107977 -0.000554469)
(0.0329917 0.118943 -0.000593909)
(0.0304741 0.109918 -0.000556269)
(1.32185 0.875145 -0.00496928)
(1.28966 0.853844 -0.00476975)
(0.126233 0.118909 -0.000645914)
(0.360505 -0.149679 0.000429709)
(0.370338 -0.15376 0.000443233)
(0.114474 0.10782 -0.000589472)
(0.474647 -0.196826 0.000515462)
(0.215903 0.203344 -0.00107016)
(0.201877 0.190198 -0.00100773)
(0.454772 -0.188691 0.00050928)
(1.70931e-05 -0.0174132 3.41846e-05)
(0.000193484 -0.00451207 1.30403e-05)
(-0.0517623 -0.509153 0.00143146)
(-5.14846e-05 -0.0223701 7.65705e-05)
(3.17172e-05 -0.0163265 4.59266e-05)
(-0.0673447 -0.544287 0.00153901)
(-0.0544862 -0.535447 0.00206562)
(-0.000125902 -0.027849 0.00011759)
(-0.000181 -0.0318564 0.000124182)
(-0.0721607 -0.582535 0.00223157)
(-0.0726321 -0.586286 0.0022735)
(-0.000147999 -0.0294413 0.000137073)
(-0.0580208 -0.569704 0.0025117)
(-0.000216652 -0.0345036 0.000155536)
(-0.0800159 -0.645079 0.0028589)
(1.37684 0.911787 -0.00510469)
(1.37479 0.910402 -0.00513242)
(1.37206 0.908557 -0.00515068)
(1.37657 0.911571 -0.00514232)
(0.195473 0.847726 -0.00403166)
(0.521507 2.55592 -0.0120757)
(0.540243 2.64778 -0.0124271)
(0.190287 0.825154 -0.00395253)
(0.178087 0.770914 -0.00375008)
(0.234691 1.05911 -0.00511416)
(0.265379 1.25194 -0.0059932)
(0.438118 2.14521 -0.0102342)
(0.179582 0.777517 -0.00377844)
(0.242041 1.09268 -0.00526125)
(0.254814 1.20176 -0.00576896)
(0.430679 2.10859 -0.0100755)
(1.38926 0.920883 -0.00234179)
(1.38788 0.920004 -0.00186419)
(1.39089 0.922007 -0.00127419)
(1.38846 0.920393 -0.00179145)
(0.439764 2.60739 -0.00309575)
(0.463097 2.74519 -0.00428435)
(-0.00163728 -0.013396 1.67174e-05)
(-0.0671896 -0.54338 0.000820445)
(-0.00166987 -0.0135772 2.20941e-05)
(0.0214587 0.121316 -0.000241299)
(0.0215548 0.121884 -0.000202294)
(0.0216169 0.122243 -0.000144841)
(0.0216105 0.122212 -0.000188589)
(0.23221 1.00773 -0.0011872)
(0.195255 0.847338 -0.00125352)
(0.638348 3.1312 -0.00476911)
(-0.055621 -0.369604 0.00176018)
(-0.0440055 -0.27434 0.00131959)
(-0.065059 -0.472805 0.00224537)
(-0.0460096 -0.286683 0.00138057)
(-0.0602516 -0.400074 0.00191231)
(0.422658 3.61412 -0.00337078)
(0.40761 3.48667 -0.0027315)
(0.0836439 0.311012 -0.000186425)
(0.107981 0.443099 0.000293307)
(0.108061 0.443461 -0.000942451)
(0.0835075 0.310535 -0.000252654)
(0.140124 0.646106 -0.000476063)
(0.175458 0.771619 -0.000510748)
(0.176495 0.776314 -0.000621397)
(0.143092 0.660334 -0.000535218)
(0.108029 0.443332 0.000168096)
(0.0833199 0.309871 -0.000341042)
(0.107957 0.443054 -0.00106478)
(0.0834418 0.310301 -0.00027742)
(0.0765579 1.15539 -0.000629595)
(-0.00331564 1.51214 -0.000769905)
(-0.00348683 1.56595 -0.00117768)
(0.0711844 1.07464 -0.000843132)
(-0.0717701 1.74783 -0.00141596)
(1.39107 0.922104 -0.00092431)
(-0.0690392 1.68128 -0.0017313)
(-0.0691245 1.6855 -0.000848237)
(-0.0718303 1.74971 -0.00128292)
(1.39059 0.921766 -0.000814246)
(-0.0034754 1.55481 -0.00127481)
(0.0672323 1.01544 -0.00111663)
(-0.00329058 1.46617 -0.00153974)
(0.069934 1.05594 -0.000901695)
(0.317587 1.43699 -0.000840029)
(0.25244 1.09568 -0.000804291)
(0.625416 3.06857 -0.00268599)
(0.363736 1.71974 -0.0017714)
(0.342876 1.6214 -0.00095124)
(0.612324 3.00426 -0.00230673)
(0.255787 1.11019 -0.000985834)
(0.33273 1.50523 -0.00154193)
(0.0844539 0.331637 -0.000172666)
(0.0801141 0.314558 -0.000227175)
(0.0691439 0.253351 -0.000100591)
(0.0719729 0.263677 -0.00015022)
(0.0788494 0.309602 -0.000241741)
(0.650991 4.07155 -0.00302084)
(0.434685 2.57685 -0.0020198)
(0.675176 4.22492 -0.00334529)
(0.390883 2.61269 -0.00249293)
(0.405219 2.70948 -0.00214564)
(0.440871 2.6138 -0.00234138)
(-0.032163 -0.236606 0.00016451)
(-0.0205548 -0.139107 0.000146971)
(-0.00150388 -0.0126912 1.24314e-05)
(-0.0198441 -0.13505 9.40214e-05)
(-0.00148401 -0.0127521 1.09364e-05)
(0.062772 0.329632 -0.000222298)
(0.159928 0.790846 -0.000533749)
(0.162281 0.803041 -0.000649169)
(0.0477466 0.257284 -0.000275342)
(0.0217182 0.122728 -0.000115061)
(0.0476806 0.256394 -0.000175385)
(0.0217294 0.122623 -9.87236e-05)
(0.0369828 0.134004 -4.93482e-05)
(0.0392514 0.142204 -7.62647e-05)
(0.0651422 0.237533 -0.00116922)
(0.06758 0.246405 -0.00120563)
(0.0315578 0.110295 -0.000548835)
(0.0356658 0.128564 -0.000634272)
(0.0374009 0.130721 -0.000635195)
(0.0373387 0.134589 -0.000659358)
(0.27499 0.807475 -0.000391865)
(0.274978 0.807295 -0.000231563)
(0.285339 0.663105 -0.000254229)
(0.285237 0.662836 -0.000207814)
(-0.194568 1.80233 -0.00035126)
(-0.0629271 1.53633 -0.0004382)
(1.38809 0.920497 -0.000421331)
(-0.865421 2.81383 -0.00103376)
(-0.0647648 1.5805 -0.00056567)
(-0.202766 1.87651 -0.000769944)
(0.0680031 0.249181 -7.99894e-05)
(0.0680434 0.249411 -7.23256e-05)
(0.0361099 0.130854 -3.90417e-05)
(0.0320691 0.112679 -3.53727e-05)
(0.0320105 0.112539 -2.4558e-05)
(0.0361581 0.131087 -3.50324e-05)
(0.40984 2.42543 -0.011322)
(0.380298 2.2503 -0.0105709)
(-0.000113025 -0.00369246 3.01935e-05)
(-0.0029798 -0.0202861 0.000108819)
(-0.0280561 -0.176109 0.00083653)
(-0.0248589 -0.15642 0.000738404)
(-0.00786496 -0.048557 0.000244534)
(-0.00425545 -0.02767 0.00014384)
(1.35791 0.899123 -0.00511849)
(1.36699 0.905162 -0.00514715)
(1.3731 0.909243 -0.00515596)
(1.36764 0.905597 -0.00514798)
(-0.0217431 -0.12886 0.000634188)
(-0.0160482 -0.0959104 0.00047347)
(0.346357 2.0484 -0.00962769)
(0.370589 2.1926 -0.0103076)
(-0.0944093 -0.759817 0.00355831)
(-0.0294854 -0.184912 0.000879616)
(-0.0335042 -0.209666 0.00100179)
(-0.00950322 -0.0580371 0.000289992)
(-0.0140536 -0.0843695 0.00041765)
(0.198235 0.859465 -0.00413783)
(0.511198 2.50531 -0.0118714)
(0.190859 0.827566 -0.00396745)
(0.475956 2.33181 -0.0110922)
(0.281831 2.39888 -0.0112353)
(0.290059 2.46931 -0.0115745)
(0.0659738 0.269735 -0.000910836)
(0.0535277 0.198428 -0.000933281)
(0.0563202 0.208821 -0.000984126)
(0.0620834 0.253734 -0.00150192)
(0.0986421 0.431656 -0.00199704)
(0.0659276 0.302241 -0.00138396)
(0.0942835 0.412441 -0.00190172)
(0.0699393 0.320808 -0.00147542)
(0.059573 0.220928 -0.00104318)
(0.0572477 0.212273 -0.00100142)
(0.0707154 0.289239 -0.000981166)
(-0.00233084 1.37283 -0.00628233)
(0.0573078 0.857887 -0.00397123)
(0.0585857 0.877135 -0.00405909)
(-0.0022773 1.34653 -0.00616191)
(-0.0641441 1.58297 -0.00719617)
(1.35579 0.897701 -0.00510936)
(-0.0648501 1.60014 -0.00727359)
(-0.0023496 1.38186 -0.00632129)
(0.0600244 0.898842 -0.00415638)
(-0.00238092 1.39452 -0.00637802)
(0.059007 0.883486 -0.00408784)
(-0.0637199 1.57259 -0.00715132)
(1.35296 0.89582 -0.00509846)
(-0.0625464 1.54385 -0.0070201)
(0.315489 2.68657 -0.012547)
(0.30971 2.63714 -0.0123243)
(0.0432283 0.160099 -0.00074327)
(0.0475088 0.176029 -0.000822477)
(0.0556294 0.227191 -0.00133655)
(0.052331 0.193975 -0.000911322)
(0.0602846 0.246337 -0.000825645)
(0.0489531 0.181403 -0.000848873)
(0.0829212 0.362332 -0.00165438)
(0.0605793 0.277485 -0.0012629)
(0.0881189 0.385259 -0.00176844)
(0.0558748 0.255701 -0.00115484)
(-0.0576637 1.424 -0.00647641)
(-0.0599094 1.47921 -0.00672512)
(1.33235 0.882138 -0.00501526)
(0.0519225 0.776884 -0.00360102)
(-0.00204849 1.22857 -0.00562465)
(-0.00215158 1.28366 -0.00587404)
(0.0542403 0.811711 -0.00376063)
(-0.00218322 1.29987 -0.0059484)
(0.0567572 0.849574 -0.00393425)
(0.0550325 0.823626 -0.00381407)
(-0.00225281 1.33514 -0.00611182)
(-0.0605827 1.49573 -0.00680057)
(1.33781 0.885753 -0.00503546)
(-0.0620696 1.5322 -0.00696931)
(0.0749643 0.293653 -0.00145993)
(0.0750966 0.294039 -0.00146253)
(0.0552734 0.20189 -0.00102417)
(0.0555497 0.203037 -0.00103182)
(0.0754658 0.295795 -0.00146916)
(0.239458 1.12877 -0.00543513)
(0.402239 1.96846 -0.00945379)
(0.224866 1.01409 -0.00490734)
(0.17414 0.753282 -0.00367877)
(0.175162 0.757865 -0.00369669)
(0.231863 1.04621 -0.00505554)
(0.410056 2.00706 -0.0096053)
(0.250761 1.18252 -0.00568264)
(0.0763595 0.298748 -0.00148121)
(0.0759973 0.29738 -0.00147601)
(0.0750808 0.293931 -0.00146179)
(0.0553039 0.201955 -0.00102371)
(0.0567062 0.206945 -0.00104277)
(0.262073 1.74598 -0.00823508)
(0.417734 2.60583 -0.0123171)
(0.274724 1.62343 -0.00768808)
(0.281226 1.66199 -0.00786783)
(0.447987 2.79501 -0.0131834)
(0.438371 2.73496 -0.0129106)
(0.268712 1.79035 -0.00842909)
(-0.0014414 -0.0105714 8.03584e-05)
(-0.0262141 -0.154731 0.00076016)
(0.052837 0.258292 -0.00115468)
(0.00640709 0.0314018 -0.00011231)
(-0.0286197 -0.16865 0.000828444)
(-0.00896784 -0.0514954 0.000280436)
(-0.0657452 -0.436362 0.00210178)
(-0.0534804 -0.332746 0.00161367)
(-0.066192 -0.480964 0.00228825)
(-0.0517284 -0.321917 0.00155658)
(-0.0618157 -0.410373 0.00196535)
(0.459074 2.86438 -0.0135004)
(0.468164 2.92126 -0.0137568)
(0.291798 1.94471 -0.00912942)
(0.285971 1.90575 -0.00895293)
(-0.0206988 -0.115437 0.000601103)
(-0.0380321 -0.223164 0.00110073)
(0.04623 0.225453 -0.000993357)
(0.00313291 0.0140798 -2.75262e-05)
(0.0400643 0.194788 -0.000843193)
(-0.0356601 -0.2094 0.00103048)
(-0.0119554 -0.0677426 0.000360419)
(0.0291165 0.10515 -0.000538775)
(0.0295257 0.106714 -0.000548002)
(0.0291114 0.105103 -0.000537916)
(0.0299628 0.108097 -0.000548995)
(0.120261 0.352121 -0.00163456)
(0.146223 0.428352 -0.0020234)
(0.193923 0.449845 -0.00218542)
(0.188647 0.437595 -0.00212426)
(0.16128 0.37406 -0.00180377)
(0.169446 0.393026 -0.001903)
(0.153219 0.4489 -0.00212738)
(-0.604134 1.96762 -0.00854548)
(1.3167 0.871728 -0.00494479)
(-0.0562644 1.38973 -0.00631789)
(-0.168613 1.56831 -0.00705106)
(-0.576729 1.87854 -0.00821927)
(-0.507043 1.65097 -0.00707381)
(-0.525143 1.71026 -0.00743354)
(-0.145915 1.35793 -0.00610123)
(-0.0504515 1.24696 -0.00566306)
(1.29991 0.860574 -0.00485604)
(-0.559545 1.82271 -0.00792127)
(0.086573 0.315734 -0.0014933)
(0.0797193 0.290718 -0.00139139)
(0.139343 0.131271 -0.000708791)
(0.397748 -0.165143 0.000479593)
(0.383091 -0.159055 0.000460482)
(0.15298 0.144129 -0.000772185)
(0.0534401 0.18691 -0.000874267)
(0.0499211 0.180009 -0.000849292)
(0.0454249 0.163771 -0.000782874)
(0.0401218 0.140239 -0.000675119)
(0.183495 0.172895 -0.00091906)
(0.415108 -0.172341 0.000491418)
(0.432973 -0.179721 0.000504919)
(0.16852 0.158783 -0.000844905)
(0.66942 3.28317 -0.00697242)
(0.22821 0.989946 -0.00207427)
(0.238257 1.03322 -0.00245723)
(0.61346 3.00782 -0.00723365)
(0.231217 1.00274 -0.00366249)
(0.657388 3.22319 -0.0111245)
(0.212702 0.92234 -0.00318225)
(0.640899 3.14223 -0.0114893)
(0.247541 1.07336 -0.00468278)
(0.590688 2.89526 -0.0122827)
(0.217305 0.942316 -0.00401666)
(0.591487 2.89945 -0.0125963)
(-0.0671678 -0.543089 0.00100731)
(-0.0341112 -0.249976 0.000494037)
(-0.0477519 -0.348052 0.00159794)
(-0.0602494 -0.438133 0.00207082)
(-0.0985312 -0.792683 0.00372705)
(-0.0521524 -0.512889 0.0016047)
(-0.00525045 -0.158656 0.000528754)
(-0.00517995 -0.15665 0.000480564)
(0.000100368 -0.0112609 4.00616e-05)
(0.000198417 -0.00414741 1.27702e-05)
(-0.00183561 -0.0145987 3.20257e-05)
(-0.0670385 -0.54194 0.00128393)
(-0.00196487 -0.0153954 3.8571e-05)
(-0.0681721 -0.550826 0.00173351)