/*--------------------------------*- C++ -*----------------------------------*\
| =========                 |                                                 |
| \\      /  F ield         | OpenFOAM: The Open Source CFD Toolbox           |
|  \\    /   O peration     | Version:  2306                                  |
|   \\  /    A nd           | Website:  www.openfoam.com                      |
|    \\/     M anipulation  |                                                 |
\*---------------------------------------------------------------------------*/
FoamFile
{
    version     2.0;
    format      ascii;
    arch        "LSB;label=32;scalar=64";
    class       volScalarField;
    location    "0.75";
    object      p;
}
// * * * * * * * * * * * * * * * * * * * * * * * * * * * * * * * * * * * * * //

dimensions      [0 2 -2 0 0 0 0];

internalField   nonuniform List<scalar> 
111542
(
61.4253
62.7401
65.8819
71.0129
78.1948
87.6195
99.4268
113.63
129.724
146.287
160.779
169.231
167.656
154.93
134.164
111.094
89.6866
71.3988
56.311
44.2078
34.6576
27.3235
21.8211
17.6479
14.4754
12.0375
10.0646
8.52989
7.38595
6.50654
5.80965
5.23969
4.80902
4.44659
4.09972
3.72521
3.2681
2.72171
1.98327
0.958982
60.2577
61.53
64.6359
69.7011
76.8684
86.4343
98.7502
114.05
132.155
151.995
170.892
183.345
181.82
165.095
139.021
112.239
88.8884
69.6022
54.0939
41.9246
32.5799
25.541
20.2825
16.4199
13.5177
11.2592
9.48372
8.11202
7.05768
6.22955
5.56543
5.02653
4.58873
4.21176
3.85524
3.48023
3.04203
2.49387
1.76437
0.796338
57.9493
59.1511
62.1087
66.9834
74.0281
83.7325
96.7875
113.983
135.97
162.586
190.511
211.183
210.557
184.679
148.327
115.229
88.1952
66.8797
50.5097
38.1692
29.0088
22.5907
18.0252
14.6522
11.8655
9.58572
7.86472
6.61338
5.69039
4.99435
4.46535
4.0618
3.74824
3.49043
3.25242
2.99598
2.6752
2.23143
1.58989
0.674865
54.567
55.6383
58.2948
62.7454
69.3563
78.8353
92.3114
111.465
138.689
177.222
211.841
253.726
258.614
217.203
164.825
124.579
91.9282
67.2191
49.2359
36.2069
22.8711
16.7816
14.5708
13.2679
11.2996
9.24267
7.60408
6.37068
5.40619
4.63542
4.02422
3.5429
3.16179
2.85007
2.57845
2.31376
2.00933
1.59971
0.987699
0.0556671
50.2412
51.1006
53.252
56.9231
62.5371
70.9227
83.5087
102.702
132.519
176.944
253.22
338.557
361.265
252.397
167.812
120.261
81.4563
55.2876
38.1959
27.2648
19.8302
5.81594
5.08947
5.68722
5.07227
4.28587
3.7393
3.33804
2.99935
2.71586
2.49095
2.31613
2.18037
2.06877
1.96848
1.86213
1.71586
1.47057
0.9982
-0.0144356
45.192
45.7515
47.1717
49.6432
53.5319
59.5624
69.057
84.4625
110.537
164.924
258.069
451.879
615.122
238.902
165.313
111.883
65.4664
39.5291
24.5125
15.4778
10.8485
14.8279
13.5166
8.46984
5.10737
3.51513
2.66152
2.04421
1.56661
1.22092
0.982919
0.821605
0.715029
0.647675
0.60836
0.58554
0.563281
0.526423
0.47411
0.512377
39.7378
39.9224
40.4251
41.3366
42.833
45.252
49.1808
55.6111
66.251
105.477
180.848
409.984
1945.45
-434.146
185.874
77.904
30.9773
15.4483
7.22948
-2.55921
-11.3404
15.903
15.4208
9.64512
6.0851
4.6077
3.86019
3.28443
2.81638
2.46685
2.21474
2.02928
1.89098
1.78665
1.70784
1.64717
1.5898
1.5272
1.45648
1.42624
34.2925
34.0664
33.5693
32.7616
31.5747
29.8442
27.1799
22.6539
13.9043
16.1875
-0.752936
-162.13
-997.735
-1037.93
-315.39
-102.153
-46.7012
-26.2285
-16.9465
-10.4262
-2.12589
-7.37836
-5.51325
-3.99826
-3.21285
-2.36788
-1.53229
-0.870341
-0.372946
0.020397
0.34494
0.615462
0.841825
1.03082
1.18613
1.3058
1.3735
1.35651
1.18606
0.730567
29.2419
28.6745
27.238
24.8167
21.1564
15.7151
7.49171
-5.38197
-26.5038
-49.5806
-122.906
-266.982
-476.144
-504.944
-320.692
-175.569
-100.576
-61.0823
-38.9469
-24.852
-14.5647
-7.80906
-3.85228
-1.13376
0.468439
1.44996
2.13329
2.60302
2.90189
3.08295
3.18855
3.24324
3.25974
3.24352
3.19315
3.10013
2.93891
2.65895
2.16225
1.25331
25.0861
24.1966
21.9901
18.2784
12.6988
4.54573
-7.36159
-24.9659
-51.5219
-92.6131
-150.159
-222.615
-287.715
-295.756
-238.246
-165.082
-109.613
-73.9769
-50.8823
-34.8806
-23.5246
-15.9427
-11.0156
-7.56637
-5.12424
-3.3813
-2.07638
-1.06954
-0.291914
0.309715
0.780764
1.15335
1.44616
1.66797
1.81723
1.88595
1.84943
1.6631
1.26436
0.604167
22.1128
21.0017
18.2657
13.686
6.86171
-2.90933
-16.7048
-35.9889
-62.6031
-98.3951
-143.337
-192.255
-230.484
-237.349
-206.775
-157.816
-113.261
-80.7351
-57.9301
-41.3464
-29.0388
-20.0514
-13.5267
-8.77892
-5.32512
-2.82172
-0.996665
0.342618
1.32216
2.03155
2.53955
2.89639
3.13496
3.27286
3.30756
3.24789
3.06843
2.72062
2.1304
1.16772
20.5652
19.3551
16.3354
11.3438
3.90592
-6.58594
-21.1221
-40.8185
-66.8083
-99.4336
-137.201
-174.74
-202.153
-207.936
-187.977
-151.816
-114.212
-83.7024
-61.0708
-44.2233
-31.5249
-22.0627
-15.1552
-10.1644
-6.60058
-4.03629
-2.1735
-0.807413
0.201288
0.948318
1.50218
1.91115
2.20788
2.41444
2.47492
2.46275
2.33426
2.03716
1.5203
0.732275
60.9423
62.2068
65.2863
70.2711
77.2358
86.3616
97.8162
111.564
127.101
143.09
157.068
165.155
163.41
150.902
130.634
108.138
87.3279
69.5562
54.9104
43.1459
33.8989
26.7717
21.3676
17.2964
14.1954
11.7749
9.85613
8.36464
7.22868
6.35685
5.67674
5.13974
4.7154
4.35919
4.0279
3.68041
3.27134
2.75138
2.0391
1.03092
59.7827
61.018
64.0407
68.9598
75.9113
85.1805
97.1086
111.912
129.421
148.617
166.9
179.027
177.182
160.741
135.307
109.241
86.5411
67.8076
52.7575
40.9551
31.8997
25.0288
19.8661
16.082
13.241
11.0204
9.27571
7.92591
6.88461
6.06945
5.42166
4.90207
4.48007
4.12034
3.78723
3.44287
3.04407
2.53539
1.84313
0.885186
57.4956
58.6616
61.5325
66.261
73.0875
82.4831
95.1166
111.756
133.044
158.849
185.935
205.884
205.347
180.006
144.523
112.278
85.9583
65.236
49.3468
37.4
28.5926
22.2822
17.7188
14.3652
11.6311
9.41246
7.74447
6.5352
5.64401
4.97087
4.45822
4.06636
3.76159
3.51209
3.28639
3.04933
2.75789
2.35051
1.73883
0.799054
54.1466
55.183
57.7559
62.0648
68.4607
77.6281
90.6638
109.211
135.63
173.15
208.227
249.368
254.115
213.133
161.814
122.262
90.1563
65.9159
48.3034
35.5819
22.4413
16.5164
14.2284
12.8266
10.8229
8.78707
7.19516
6.01554
5.10417
4.38284
3.81663
3.37531
3.03071
2.75405
2.51925
2.29718
2.04659
1.70057
1.14456
0.182693
49.8665
50.6932
52.7698
56.3137
61.7323
69.8305
82.0035
100.617
129.645
174.077
249.381
333.746
356.024
248.321
165.728
118.617
80.2114
54.3987
37.5269
26.7727
19.8494
5.3283
4.85373
5.53494
4.95651
4.20695
3.69278
3.31016
2.97401
2.67996
2.43635
2.23897
2.08189
1.95455
1.84789
1.75066
1.638
1.45384
1.05982
0.0771361
44.875
45.4055
46.7655
49.136
52.8703
58.6757
67.8513
82.8194
108.324
162.652
255.556
448.239
610.855
237.115
165.997
111.548
65.0463
39.2372
24.2248
15.3066
12.8246
12.0138
11.6449
7.24984
4.25746
2.89688
2.1988
1.69115
1.2915
0.999011
0.795866
0.656381
0.564816
0.510497
0.488381
0.494855
0.526893
0.583079
0.673265
0.881218
39.4775
39.6499
40.1128
40.9575
42.3582
44.6477
48.4117
54.6577
65.1575
104.407
179.961
410.153
1936.78
189.561
76.2015
29.9644
15.307
7.33566
-2.32176
-8.36776
14.6797
13.7759
8.10145
4.79099
3.53055
2.94112
2.48067
2.09376
1.79444
1.56783
1.3917
1.25573
1.15393
1.08552
1.05094
1.04922
1.08309
1.16285
1.3323
34.0876
33.8694
33.3551
32.5203
31.3049
29.5537
26.8984
22.4661
14.0121
16.4913
0.304889
-158.082
-982.281
-1029.18
-309.587
-100.821
-45.9763
-25.8541
-16.7932
-10.4636
-3.27294
-7.74324
-6.16087
-4.70681
-3.79493
-2.83757
-1.94458
-1.24927
-0.724037
-0.306323
0.0389693
0.327961
0.572623
0.780958
0.960731
1.11536
1.23716
1.29951
1.23265
0.862318
29.1223
28.5443
27.11
24.7026
21.0762
15.7095
7.64062
-4.93281
-25.501
-48.3747
-120.179
-262.171
-469.164
-495.716
-315.063
-172.098
-98.4169
-59.8832
-38.3726
-24.6763
-14.739
-8.38231
-4.59504
-1.87994
-0.190133
0.870198
1.60168
2.10199
2.42175
2.61501
2.72525
2.77975
2.79449
2.77842
2.73461
2.65969
2.5339
2.31143
1.89818
1.10433
25.0092
24.1226
21.9402
18.2719
12.7711
4.76101
-6.89889
-24.0869
-49.9645
-89.9978
-146.089
-216.823
-280.686
-288.284
-231.869
-160.498
-106.667
-72.2473
-49.9704
-34.5175
-23.5497
-16.256
-11.4272
-7.98933
-5.54148
-3.79244
-2.48085
-1.46668
-0.682228
-0.074991
0.400965
0.778446
1.07722
1.30726
1.47007
1.55978
1.55493
1.41399
1.07738
0.498252
22.0734
20.9746
18.2711
13.7499
7.03629
-2.5545
-16.06
-34.8958
-60.8408
-95.6969
-139.44
-187.039
-224.268
-231.004
-201.113
-153.5
-110.292
-78.8445
-56.8122
-40.7728
-28.8535
-20.1372
-13.7644
-9.10465
-5.70219
-3.22513
-1.40986
-0.072147
0.908052
1.61762
2.12473
2.47977
2.71628
2.85378
2.89823
2.85036
2.69038
2.37595
1.84043
0.975098
20.5486
19.341
16.3733
11.43
4.13205
-6.16989
-20.4025
-39.6542
-64.9748
-96.7653
-133.525
-170.033
-196.687
-202.37
-182.982
-147.738
-111.223
-81.7104
-59.8303
-43.5298
-31.2176
-22.0264
-15.2981
-10.4313
-6.92164
-4.3833
-2.53445
-1.17492
-0.168808
0.577162
1.13024
1.538
1.83167
2.02716
2.12092
2.12144
2.00677
1.73682
1.26787
0.572851
59.9977
61.1892
64.1013
68.7995
75.3476
83.9078
94.6293
107.455
121.899
136.718
149.574
156.85
154.897
142.831
123.518
102.194
82.5322
65.7676
51.9671
40.8817
32.1599
25.3908
20.2033
16.2813
13.296
10.9661
9.12719
7.69257
6.58971
5.74267
5.08599
4.57166
4.16267
3.82409
3.52008
3.21253
2.85889
2.40687
1.78802
0.916603
58.8586
60.0217
62.8725
67.5027
74.031
82.7154
93.8647
107.667
123.957
141.782
158.72
169.736
167.779
152.003
127.83
103.179
81.7594
64.103
49.9356
38.8333
30.3067
23.7328
18.7404
15.1003
12.3884
10.2588
8.56698
7.24249
6.21229
5.40539
4.76743
4.2598
3.85075
3.5097
3.20581
2.9051
2.56746
2.13987
1.55481
0.743514
56.6135
57.7077
60.4062
64.8453
71.2404
80.0235
91.8122
107.321
127.164
151.247
176.557
195.253
194.339
170.079
136.447
105.994
81.1491
61.634
46.7155
35.546
27.4145
21.3126
16.7323
13.4235
10.8087
8.69175
7.07443
5.88363
4.99972
4.33249
3.82796
3.44755
3.15787
2.93047
2.73765
2.55042
2.33071
2.02194
1.53448
0.730898
53.3304
54.2972
56.7045
60.7329
66.7029
75.2484
87.3944
104.691
129.401
164.666
199.247
238.545
242.817
203.138
154.122
116.472
85.7597
62.653
45.9307
33.8983
21.2797
15.8947
13.5383
11.9401
9.79684
7.65996
5.98316
4.73985
3.79139
3.05739
2.49665
2.07501
1.76171
1.52891
1.35438
1.2161
1.08236
0.896585
0.551562
-0.144695
49.1415
49.9024
51.8308
55.1225
60.1524
67.6726
78.9995
96.3864
123.676
167.006
239.536
321.085
342.371
237.194
158.675
113.765
76.4999
51.63
35.4449
25.0625
18.3717
4.54873
4.60172
5.34579
4.53809
3.49153
2.74039
2.19711
1.76121
1.41156
1.14231
0.941358
0.799293
0.703842
0.650904
0.637505
0.656927
0.675521
0.576907
-0.0415193
44.2711
44.7373
45.9779
48.1477
51.5729
56.9205
65.4305
79.438
103.591
156.762
247.973
437.32
595.958
225.958
162.351
108.926
62.6346
37.083
22.4129
13.556
8.9039
7.24969
6.92313
2.89058
-0.0195994
-1.42466
-2.11167
-2.53747
-2.8208
-2.9865
-3.06104
-3.07567
-3.03494
-2.94984
-2.81767
-2.62835
-2.35858
-1.96607
-1.35681
-0.243521
38.9733
39.1258
39.511
40.2243
41.4325
43.4543
46.8582
52.6609
62.7108
101.453
176.879
409.055
1915.55
190.836
79.5888
29.654
14.0224
5.99011
-2.92293
-9.34023
13.2114
11.9327
6.11113
2.8079
1.47446
0.761689
0.192852
-0.27127
-0.619812
-0.86936
-1.04333
-1.15476
-1.20518
-1.19218
-1.10483
-0.920677
-0.603726
-0.0849725
0.747838
33.7223
33.4937
32.946
32.0614
30.7882
28.9863
26.3292
22.0424
14.1083
17.0369
2.85065
-147.856
-961.649
-1010.08
-297.446
-94.6077
-43.1179
-24.9164
-16.8386
-10.8906
-3.62601
-8.312
-7.54812
-6.53976
-5.56825
-4.46659
-3.46939
-2.68998
-2.09022
-1.61187
-1.21799
-0.887607
-0.605021
-0.356464
-0.121651
0.113504
0.360643
0.613081
0.818215
0.771071
28.8845
28.3065
26.8815
24.5024
20.9426
15.7204
7.94843
-4.04025
-23.4967
-45.402
-113.652
-250.034
-450.745
-476.916
-301.048
-163.329
-93.429
-57.3351
-37.2701
-24.4014
-14.9698
-9.40768
-5.81718
-3.09183
-1.32909
-0.220456
0.533362
1.04683
1.37733
1.58001
1.70209
1.77356
1.81307
1.83116
1.8386
1.83781
1.8191
1.74772
1.53412
0.966157
24.8735
24.0005
21.8637
18.2839
12.9431
5.21544
-5.95646
-22.3181
-46.8268
-84.6459
-137.639
-204.66
-265.521
-272.826
-219.135
-151.557
-101.013
-68.9238
-48.1716
-33.7353
-23.5013
-16.7957
-12.0111
-8.54952
-6.14809
-4.45085
-3.15863
-2.13875
-1.33703
-0.708245
-0.208356
0.194388
0.520969
0.780733
0.982141
1.12327
1.18919
1.14451
0.927831
0.460472
22.0132
20.9372
18.3018
13.9077
7.41326
-1.81773
-14.7449
-32.6811
-57.2788
-90.2256
-131.52
-176.481
-211.754
-218.213
-189.965
-145.038
-104.467
-75.0699
-54.4829
-39.4613
-28.2745
-20.0642
-13.9329
-9.41572
-6.13386
-3.74659
-1.98349
-0.670761
0.299958
1.00931
1.52291
1.88995
2.14423
2.30574
2.38559
2.38329
2.28354
2.05016
1.61848
0.869203
20.52
19.3475
16.4591
11.6577
4.60718
-5.3029
-18.9234
-37.2619
-61.2778
-91.3446
-126.043
-160.48
-185.647
-191.076
-172.85
-139.682
-105.394
-77.7606
-57.2787
-41.9905
-30.411
-21.7329
-15.3245
-10.64
-7.23861
-4.7749
-2.97607
-1.64412
-0.648888
0.0972725
0.657715
1.07814
1.38896
1.60655
1.73696
1.77679
1.71061
1.50628
1.12046
0.509222
58.6473
59.7356
62.3991
66.6865
72.6391
80.3849
90.0359
101.512
114.347
127.405
138.567
144.6
142.357
130.99
113.152
93.6054
75.6352
60.3322
47.7463
37.6357
29.66
23.4062
18.5241
14.7757
11.9262
9.73156
8.02093
6.69422
5.67568
4.89296
4.28565
3.81006
3.43272
3.12396
2.85432
2.59278
2.3038
1.94277
1.45235
0.763218
57.5377
58.5971
61.198
65.4128
71.3323
79.1702
89.1805
101.505
115.966
131.693
146.527
155.773
153.624
138.944
116.779
94.3034
74.7931
58.7199
45.8401
35.7535
27.9825
21.8181
17.0038
13.4884
10.9264
8.95207
7.39155
6.16949
5.22085
4.47988
3.89523
3.43133
3.06039
2.75663
2.49549
2.25069
1.99
1.66916
1.22938
0.607617
55.3533
56.3442
58.7941
62.8155
68.5865
76.4766
87.0172
100.825
118.431
139.747
162.075
178.573
177.06
154.682
124.128
96.5021
73.9153
56.2186
42.7513
32.7335
25.5471
19.5743
14.6976
11.3784
9.06198
7.28869
5.92859
4.90844
4.13598
3.53922
3.07621
2.71877
2.44378
2.22999
2.06102
1.91791
1.7749
1.58637
1.26862
0.661676
52.1647
53.0321
55.2005
58.8229
64.1723
71.8006
82.6079
97.9676
119.912
151.322
184.248
220.01
223.342
186.213
141.34
106.925
78.5311
57.2987
42.0387
31.1249
19.228
13.7707
10.7673
8.99274
7.20354
5.52591
4.20833
3.21962
2.45229
1.84326
1.36314
0.994684
0.717261
0.512124
0.374182
0.296275
0.267946
0.255782
0.171336
-0.214612
48.1043
48.7768
50.4907
53.4143
57.8722
64.5265
74.5488
89.9602
114.27
154.984
221.821
297.733
316.957
217.263
146.447
105.092
69.6769
46.4671
31.5578
21.9609
15.2459
-2.37406
-0.636397
1.80932
2.00212
1.48534
0.99385
0.55466
0.134473
-0.248586
-0.576706
-0.834475
-1.02756
-1.15776
-1.21278
-1.17827
-1.03321
-0.769015
-0.450899
-0.463797
43.3911
43.789
44.8577
46.7319
49.6964
54.3445
61.7888
74.1587
95.7757
145.975
232.871
414.423
565.576
202.799
155.354
104.273
57.7343
32.7332
18.8034
10.3942
4.61699
-4.13098
-1.60829
-1.75707
-2.76002
-3.38734
-3.73343
-4.02248
-4.29465
-4.52534
-4.70136
-4.83623
-4.90785
-4.91766
-4.84423
-4.65137
-4.27576
-3.60143
-2.41957
-0.387808
38.2854
38.3839
38.6548
39.1766
40.0948
41.6926
44.4861
49.4382
58.37
95.2989
168.722
398.344
1878
211.184
80.4301
25.7114
8.49866
0.562824
-7.88556
-15.8073
12.7789
10.2383
3.69775
-0.0383361
-1.79105
-2.81817
-3.56956
-4.13015
-4.52968
-4.80557
-4.98284
-5.08086
-5.1077
-5.03674
-4.83707
-4.44622
-3.75428
-2.57323
-0.637275
33.2166
32.9683
32.3729
31.415
30.0487
28.1465
25.4279
21.2348
13.8552
17.0568
5.3222
-134.193
-915.758
-957.204
-275.739
-85.6667
-40.6311
-25.3872
-18.533
-12.9825
-4.63552
-6.86834
-6.8803
-6.58363
-5.9809
-5.17198
-4.39943
-3.76971
-3.27234
-2.87411
-2.54984
-2.26986
-2.03927
-1.83142
-1.61003
-1.3445
-0.995774
-0.524172
0.0691409
0.562886
28.561
27.9836
26.5742
24.2346
20.764
15.7346
8.36199
-2.82275
-20.6817
-40.9086
-103.451
-229.743
-417.733
-441.788
-276.433
-149.42
-86.2531
-54.0309
-36.1073
-24.4915
-15.8915
-11.1827
-7.04506
-3.96675
-2.28359
-1.39698
-0.833187
-0.45185
-0.210309
-0.0652181
0.0236878
0.0825839
0.122939
0.15945
0.208829
0.282535
0.386415
0.510836
0.592488
0.446897
24.6969
23.8472
21.7757
18.3248
13.2138
5.88692
-4.59217
-19.7676
-42.2639
-76.6949
-124.808
-185.757
-241.308
-248.102
-199.386
-138.278
-92.8945
-64.1914
-45.5947
-32.6253
-23.4834
-17.59
-12.5247
-8.82315
-6.48198
-4.93771
-3.77077
-2.83902
-2.10091
-1.51772
-1.04905
-0.665197
-0.348787
-0.0875986
0.131512
0.311583
0.446909
0.515169
0.464676
0.217734
21.9393
20.9033
18.3677
14.16
7.98111
-0.73322
-12.8316
-29.4673
-52.0915
-82.1886
-119.744
-160.573
-192.669
-198.649
-173.134
-132.584
-96.0827
-69.6617
-51.1088
-37.5218
-27.3872
-19.9071
-14.0768
-9.68813
-6.53344
-4.27787
-2.62616
-1.40043
-0.496929
0.161319
0.637724
0.980111
1.22115
1.3818
1.47639
1.50724
1.46404
1.31987
1.02358
0.494386
20.5063
19.3755
16.6037
12.0173
5.32243
-4.02273
-16.7692
-33.7923
-55.918
-83.4412
-115.051
-146.339
-169.205
-174.216
-157.823
-127.948
-97.0532
-72.1298
-53.6096
-39.7372
-29.1934
-21.246
-15.2792
-10.8093
-7.52481
-5.15452
-3.43679
-2.16992
-1.22462
-0.51659
0.0150129
0.414798
0.71273
0.926831
1.06593
1.1287
1.10279
0.963856
0.678965
0.230609
56.977
57.9381
60.2931
64.0713
69.2861
76.0202
84.3334
94.1093
104.897
115.679
124.633
129.026
126.366
115.949
100.113
82.912
67.1135
53.6402
42.54
33.606
26.5491
21.0139
16.6594
13.246
10.6037
8.55598
6.95851
5.71842
4.76707
4.03359
3.46522
3.0236
2.67859
2.40451
2.1752
1.96585
1.74947
1.49012
1.1423
0.641883
55.9044
56.8361
59.1272
62.827
67.9908
74.7727
83.3507
93.7916
105.882
118.825
130.822
137.642
135.089
121.962
102.609
83.0729
66.0584
51.9956
40.7109
31.8732
25.098
19.7462
15.4974
12.2357
9.76795
7.84532
6.32202
5.12908
4.21553
3.50603
2.95221
2.52075
2.18552
1.92137
1.71001
1.53047
1.35747
1.15878
0.889312
0.488633
53.796
54.6599
56.8017
60.3044
65.2972
72.0646
81.0147
92.6076
107.211
124.66
142.631
155.649
153.35
133.808
107.684
84.0117
64.5142
49.1978
37.5486
28.983
23.2167
18.2722
13.6557
10.2911
7.99025
6.27967
4.96182
3.95957
3.19373
2.6122
2.16924
1.83433
1.58775
1.40858
1.28599
1.20798
1.16196
1.12028
1.01832
0.677032
50.7255
51.471
53.3431
56.4592
61.0294
67.4907
76.5571
89.3124
107.357
132.965
162.58
192.367
194.181
161.499
123.106
93.3141
68.3958
49.9255
36.7286
27.5185
18.9159
16.3369
11.2162
7.40368
4.84813
2.98801
1.64721
0.707484
0.0326955
-0.467056
-0.839287
-1.10585
-1.28274
-1.38957
-1.42182
-1.37066
-1.224
-0.975867
-0.655483
-0.447291
46.824
47.3905
48.8379
51.2996
55.0323
60.5676
68.8456
81.4927
101.35
137.294
193.73
258.721
274.084
185.826
127.84
91.067
59.1567
38.8738
26.0988
18.3065
15.5507
7.43215
5.12849
3.44066
1.72771
0.243123
-0.870042
-1.68605
-2.29805
-2.76643
-3.12072
-3.36175
-3.51085
-3.58736
-3.57172
-3.4269
-3.10329
-2.5179
-1.60974
-0.688866
42.3028
42.6241
43.479
44.9796
47.3532
51.0761
57.0426
66.9886
84.4711
128.695
206.142
370.196
508.073
167.892
148.521
92.8301
47.5437
24.7232
12.5438
5.16299
-2.9977
-31.6474
-28.9944
-26.8901
-25.7782
-24.6038
-23.4787
-22.558
-21.8116
-21.1573
-20.5546
-20.0035
-19.4635
-18.8932
-18.2588
-17.4965
-16.4813
-14.9521
-12.3144
-7.03556
37.4455
37.4741
37.602
37.8812
38.4215
39.4402
41.3463
44.9215
51.699
84.3262
151.316
370.406
1807.35
255.954
70.1184
14.2622
-1.84752
-8.54279
-13.768
-19.1922
-2.82769
-5.38037
-9.74092
-11.9359
-12.811
-13.2724
-13.6035
-13.8235
-13.9235
-13.9242
-13.8627
-13.7053
-13.4593
-13.1057
-12.5823
-11.7726
-10.4314
-8.07611
-3.88287
32.6013
32.3282
31.6734
30.6214
29.1251
27.0643
24.1908
19.9493
12.9505
15.7483
6.2765
-116.302
-824.503
-858.672
-239.063
-77.3587
-41.3779
-29.0521
-23.0393
-17.653
-11.7494
-21.2005
-17.515
-13.6601
-11.3779
-9.83237
-8.68646
-7.8607
-7.27336
-6.84477
-6.51972
-6.2512
-6.02172
-5.79635
-5.53258
-5.17664
-4.65231
-3.83671
-2.57837
-0.863122
28.1704
27.5982
26.2067
23.9129
20.5434
15.7329
8.81973
-1.40994
-17.3275
-35.2328
-89.4774
-199.135
-363.635
-383.554
-239.334
-131.006
-77.7847
-50.4905
-35.1026
-25.2703
-19.3942
-18.4173
-12.3718
-7.38934
-4.83446
-3.52446
-2.69058
-2.1258
-1.76265
-1.53549
-1.38807
-1.28593
-1.20868
-1.12869
-1.02461
-0.872224
-0.642637
-0.308381
0.112584
0.399642
24.4915
23.6713
21.6822
18.3885
13.5572
6.71799
-2.91312
-16.615
-36.5526
-66.5047
-107.815
-159.768
-206.913
-213.034
-172.372
-121.1
-82.8123
-58.3523
-42.3368
-31.1721
-23.571
-19.1802
-14.2032
-10.1708
-7.55877
-5.81752
-4.50133
-3.46255
-2.65396
-2.02814
-1.53739
-1.14474
-0.829438
-0.566829
-0.340389
-0.137294
0.0492021
0.212717
0.311169
0.220127
21.8653
20.8772
18.4674
14.4907
8.70131
0.62502
-10.4456
-25.4568
-45.5772
-71.9695
-104.508
-139.552
-167.066
-172.337
-150.887
-116.646
-85.609
-62.8978
-46.7766
-34.9016
-26.0746
-19.6334
-14.4694
-10.3389
-7.23842
-4.97106
-3.28809
-2.02472
-1.08249
-0.387488
0.122566
0.495553
0.765165
0.956365
1.08563
1.16038
1.17725
1.11642
0.929216
0.502989
20.5017
19.4263
16.8006
12.4801
6.22398
-2.42128
-14.0783
-29.4572
-49.198
-73.4633
-101.042
-128.123
-147.843
-152.249
-138.375
-113.027
-86.6073
-65.0842
-48.9341
-36.7507
-27.4591
-20.4479
-15.1326
-11.0172
-7.88476
-5.56469
-3.84961
-2.56247
-1.5866
-0.845414
-0.282461
0.1452
0.467998
0.706281
0.87133
0.966017
0.982402
0.899962
0.684005
0.282027
55.0961
55.9168
57.9264
61.1344
65.5245
71.1278
77.9437
85.8102
94.2802
102.456
108.84
111.379
108.204
98.9141
85.4702
71.0353
57.7651
46.3867
36.9367
29.2445
23.0741
18.1797
14.3453
11.367
9.05619
7.24598
5.82
4.70676
3.85686
3.19459
2.67741
2.27334
1.95504
1.70489
1.49803
1.31285
1.13534
0.93892
0.701726
0.389686
54.0656
54.8569
56.8016
59.9249
64.2434
69.8429
76.811
85.1193
94.484
104.134
112.476
116.719
113.554
102.302
86.4064
70.429
56.3987
44.6678
35.1297
27.5038
21.4412
16.6903
12.9945
10.1732
8.00826
6.2987
4.93051
3.84117
3.05403
2.42402
1.92402
1.53276
1.22919
0.983569
0.794077
0.648108
0.518549
0.390933
0.247471
0.119359
52.0434
52.7692
54.5668
57.4885
61.6093
67.1142
74.2609
83.3062
94.375
107.122
119.699
127.761
124.466
108.483
87.8626
69.2405
53.7346
41.2955
31.6121
24.1484
18.2145
13.946
10.4468
7.79513
5.81819
4.29382
3.12895
2.25305
1.53703
1.01621
0.630201
0.343722
0.139036
0.00495021
-0.0768174
-0.106116
-0.0870709
-0.0218535
0.0703896
0.142864
49.1058
49.7214
51.2627
53.8112
57.5049
62.6437
69.7078
79.3916
92.6418
110.587
134.758
155.464
155.035
129.081
99.1154
75.5137
55.5918
40.6925
29.8584
22.0113
11.3446
8.61977
5.68501
3.17834
1.18559
-0.419836
-1.63696
-2.49466
-3.10265
-3.53575
-3.84212
-4.0422
-4.15398
-4.19607
-4.16064
-4.02748
-3.77523
-3.3546
-2.69001
-1.62089
45.3888
45.8378
46.9884
48.932
51.8442
56.0965
62.3266
71.6104
85.7485
114.299
154.101
199.175
206.091
137.722
96.4782
68.2567
43.3049
27.413
17.2983
11.1211
9.53932
-2.36413
-3.75277
-4.99701
-6.31176
-7.47579
-8.38979
-8.99745
-9.31613
-9.49128
-9.57917
-9.59707
-9.53727
-9.40484
-9.20681
-8.87628
-8.34219
-7.46005
-5.99759
-3.64359
41.0943
41.3223
41.9389
43.0197
44.7206
47.3647
51.5523
58.4195
70.2126
104.266
163.033
286.092
387.271
102.152
111.303
55.5971
19.1715
1.61877
-7.45393
-12.224
-10.1281
-23.9586
-26.4549
-31.109
-32.7907
-32.6915
-32.0149
-31.233
-30.4826
-29.7007
-28.8846
-28.0373
-27.1958
-26.3456
-25.4216
-24.3533
-22.9928
-20.9927
-17.5429
-10.6493
36.4972
36.462
36.432
36.4368
36.5408
36.8734
37.6759
39.4016
42.92
67.4854
118.667
299.573
1625.17
250.732
-18.9902
-60.7336
-68.4385
-69.368
-67.633
-63.277
-36.9625
-36.0397
-37.8962
-37.9163
-36.8724
-35.6783
-34.5764
-33.5385
-32.517
-31.5101
-30.5457
-29.5877
-28.5906
-27.5626
-26.4023
-24.947
-22.8155
-19.1178
-11.5242
31.931
31.6186
30.8977
29.7391
28.0894
25.8277
22.7156
18.268
11.3914
12.6345
4.38501
-89.8249
-656.526
-653.775
-193.555
-80.0972
-52.9162
-41.906
-35.7569
-30.1574
-26.9692
-30.1146
-26.4249
-22.5597
-20.1933
-18.5102
-17.2226
-16.2369
-15.4614
-14.8249
-14.2794
-13.7946
-13.3584
-12.8927
-12.385
-11.7805
-10.9752
-9.77666
-7.82099
-4.361
27.7426
27.1763
25.807
23.5636
20.3035
15.7243
9.29302
0.0824309
-13.555
-28.7675
-72.0202
-155.603
-279.071
-295.345
-189.514
-109.037
-68.13
-46.1614
-33.3296
-25.1563
-22.6196
-18.0738
-14.6905
-11.6997
-9.80081
-8.54045
-7.58536
-6.83317
-6.24183
-5.77213
-5.38863
-5.06522
-4.78849
-4.52615
-4.25422
-3.94269
-3.54579
-2.99848
-2.21398
-1.09461
24.2764
23.4951
21.5932
18.4755
13.9552
7.65537
-1.03696
-13.0888
-30.0781
-54.7167
-87.66
-127.69
-162.996
-168.467
-138.868
-100.29
-70.444
-50.6122
-37.2034
-27.6369
-20.9714
-17.3132
-13.9591
-11.0755
-8.89749
-7.27314
-6.0068
-4.99766
-4.19389
-3.55129
-3.03133
-2.60298
-2.24738
-1.93957
-1.66217
-1.39983
-1.14089
-0.876775
-0.610086
-0.352523
21.8002
20.8655
18.5997
14.8837
9.53137
2.1692
-7.75073
-20.9337
-38.1981
-60.2734
-86.8208
-114.756
-136.466
-140.713
-124.466
-98.1064
-73.4931
-54.9033
-41.3579
-31.1953
-23.5283
-17.9406
-13.6654
-10.285
-7.6848
-5.72642
-4.24396
-3.11102
-2.24261
-1.57729
-1.06629
-0.672726
-0.369569
-0.135992
0.0421338
0.172121
0.252201
0.27015
0.201603
0.0210575
20.5157
19.5046
17.045
13.0247
7.26217
-0.596807
-11.0308
-24.5594
-41.5981
-62.1301
-85.0241
-107.134
-123.046
-126.657
-115.863
-95.8043
-74.5631
-56.8387
-43.2313
-32.7942
-24.7363
-18.617
-14.0155
-10.4988
-7.80929
-5.77277
-4.23317
-3.05978
-2.15881
-1.46486
-0.929628
-0.515764
-0.196427
0.0462542
0.22289
0.336951
0.381466
0.339735
0.192425
-0.0534547
53.1337
53.8089
55.4637
58.0859
61.6316
66.0834
71.3835
77.33
83.4877
89.0865
92.9636
93.6807
90.0414
81.9633
70.9767
59.3504
48.6397
39.3739
31.5791
25.1386
19.893
15.6885
12.3977
9.89309
7.96621
6.43955
5.22224
4.26644
3.52871
2.95584
2.5097
2.16241
1.89093
1.67529
1.49687
1.338
1.17933
0.996825
0.763053
0.449776
52.1485
52.7944
54.3846
56.9167
60.3714
64.7695
70.1111
76.2785
82.9292
89.3434
94.2415
95.6978
91.8211
82.4737
70.1472
57.8405
46.9182
37.6133
29.8827
23.5636
18.4282
14.3049
11.1279
8.82199
7.0872
5.7126
4.61586
3.75147
3.08211
2.55093
2.12712
1.79041
1.52381
1.31026
1.13891
0.998253
0.870822
0.736972
0.569969
0.340575
50.2189
50.8008
52.248
54.5763
57.8095
62.0353
67.3645
73.8548
81.3933
89.4688
96.6784
99.9834
95.252
82.4258
67.2434
53.8535
42.5796
33.1371
25.438
19.2224
14.1402
10.1685
7.75784
6.08318
4.6426
3.45266
2.56179
1.91934
1.44633
1.10339
0.855374
0.67915
0.560272
0.486122
0.448283
0.445369
0.473706
0.521329
0.55224
0.456614
47.4248
47.9021
49.1082
51.0804
53.885
57.6876
62.7365
69.3412
77.8197
88.3407
99.1496
106.512
99.9206
79.8936
61.2746
47.482
36.1183
27.0552
19.966
14.0411
7.88539
1.73029
1.96204
2.45342
1.8831
1.00582
0.256956
-0.317341
-0.7661
-1.11815
-1.38659
-1.57858
-1.70091
-1.76185
-1.75731
-1.67262
-1.49131
-1.18923
-0.758955
-0.264412
43.9016
44.2285
45.0772
46.4987
48.58
51.5346
55.695
61.5588
69.7682
89.3603
109.452
128.828
122.584
81.8594
57.7295
43.2531
28.0866
17.4536
10.4508
5.43439
0.236123
-13.7979
-11.1248
-8.24024
-6.97463
-6.34231
-5.90311
-5.56495
-5.30873
-5.12452
-4.98836
-4.87467
-4.76724
-4.65196
-4.49255
-4.24382
-3.84515
-3.20057
-2.2226
-1.01496
39.8471
39.9784
40.3527
41.0108
42.0314
43.5842
45.9639
49.6632
55.4572
76.7403
102.767
145.344
164.459
27.5784
22.0205
4.44476
-4.9857
-9.02839
-11.9947
-14.4847
-21.0238
-13.4973
-15.1158
-17.3337
-18.042
-17.9854
-17.6863
-17.313
-16.9026
-16.4541
-15.9784
-15.4737
-14.972
-14.4721
-13.9169
-13.2458
-12.3496
-11.0003
-8.77884
-5.03013
35.5222
35.4241
35.2346
34.9633
34.628
34.2671
33.9381
33.7185
33.6592
47.5394
58.9076
128.794
168.977
-702.9
-129.497
-87.4837
-61.791
-56.5987
-53.306
-51.5035
-68.6163
-40.5117
-38.4578
-36.3644
-34.382
-32.4358
-30.7145
-29.2433
-27.9531
-26.7874
-25.7203
-24.7383
-23.8216
-22.9126
-21.9776
-20.9497
-19.7104
-17.9755
-15.1238
-9.57451
31.2376
30.8983
30.1128
28.8486
27.049
24.5856
21.2135
16.473
9.45263
8.12901
-13.0122
-79.7156
-303.052
-258.826
-109.033
-58.9991
-36.1226
-26.0899
-20.922
-16.8088
-8.93852
6.00141
2.35185
-1.60371
-3.30167
-4.12754
-4.6765
-5.05788
-5.30204
-5.44331
-5.51277
-5.53693
-5.5127
-5.41731
-5.23705
-4.94909
-4.48663
-3.72447
-2.50078
-0.856126
27.3187
26.7561
25.4126
23.2266
20.0851
15.7433
9.77595
1.44671
-10.6187
-29.2195
-52.4446
-105.95
-176.045
-188.773
-130.704
-81.839
-53.6974
-36.9249
-26.6081
-19.2328
-9.57557
-1.07127
-2.41314
-3.99232
-4.04393
-3.59364
-3.14339
-2.75169
-2.4096
-2.11858
-1.87751
-1.67774
-1.51205
-1.36709
-1.21185
-1.02434
-0.779174
-0.443177
-0.0267139
0.281089
24.0717
23.3257
21.5254
18.5948
14.3994
8.65521
0.916753
-9.48416
-23.5151
-42.4208
-66.7648
-94.3213
-117.49
-121.909
-103.991
-78.3769
-56.9315
-41.7206
-30.8936
-22.6001
-15.5889
-10.9258
-8.38219
-6.52819
-4.82965
-3.42233
-2.36317
-1.57702
-0.984747
-0.535825
-0.195215
0.0647147
0.261927
0.415751
0.546504
0.66363
0.769356
0.851271
0.851898
0.589592
21.7558
20.8827
18.7652
15.324
10.4287
3.80479
-4.93659
-16.2599
-30.6229
-48.2507
-68.5417
-89.2008
-104.72
-108.126
-97.4121
-79.0001
-60.8739
-46.4055
-35.4055
-26.8404
-20.0148
-14.751
-10.7427
-7.79523
-5.5724
-3.86664
-2.56369
-1.56896
-0.805752
-0.218977
0.230315
0.571623
0.826998
1.01362
1.1433
1.22091
1.2398
1.17598
0.974541
0.518989
20.5542
19.6129
17.3298
13.6271
8.38193
1.33708
-7.84248
-19.4835
-33.7737
-50.5016
-68.6054
-85.6492
-97.6673
-100.513
-92.874
-78.2073
-62.1107
-48.1471
-37.0519
-28.307
-21.3647
-15.9217
-11.7556
-8.62043
-6.22652
-4.36362
-2.91363
-1.79264
-0.929158
-0.265333
0.242603
0.627628
0.914571
1.12056
1.25539
1.32164
1.30934
1.19374
0.927812
0.430112
51.2235
51.7594
53.0747
55.1429
57.8936
61.2721
65.1776
69.3891
73.5055
76.8996
78.7247
78.0528
74.2354
67.4112
58.6908
49.5867
41.1446
33.7511
27.4483
22.1807
17.8615
14.3968
11.6898
9.60908
7.97354
6.64785
5.57046
4.70745
4.02429
3.4829
3.05135
2.70502
2.42329
2.18733
1.9797
1.78257
1.57349
1.3256
1.00603
0.576531
50.2838
50.7914
52.0425
54.0197
56.6649
59.9504
63.8102
68.0691
72.3697
76.0926
78.3011
77.8281
73.7465
66.2554
56.9666
47.7029
39.3506
32.0909
25.9392
20.847
16.7074
13.4265
10.9382
9.06566
7.58166
6.36428
5.37105
4.56902
3.92215
3.39666
2.96642
2.61237
2.31876
2.07059
1.8539
1.65518
1.45512
1.22677
0.932362
0.524338
48.4466
48.8932
50.0058
51.7803
54.1902
57.2459
60.9468
65.2107
69.7826
74.0915
77.0424
76.9242
72.006
62.7688
52.3688
43.1206
35.1711
28.2269
22.3476
17.5327
13.675
10.7808
8.91059
7.45462
6.11415
4.95656
4.04726
3.35601
2.82568
2.41462
2.09678
1.85219
1.66516
1.52257
1.41353
1.32916
1.25544
1.16578
1.00526
0.654917
45.7948
46.1448
47.0332
48.4682
50.459
53.0588
56.3416
60.3464
64.9929