/*--------------------------------*- C++ -*----------------------------------*\
| =========                 |                                                 |
| \\      /  F ield         | OpenFOAM: The Open Source CFD Toolbox           |
|  \\    /   O peration     | Version:  2306                                  |
|   \\  /    A nd           | Website:  www.openfoam.com                      |
|    \\/     M anipulation  |                                                 |
\*---------------------------------------------------------------------------*/
FoamFile
{
    version     2.0;
    format      ascii;
    arch        "LSB;label=32;scalar=64";
    class       surfaceScalarField;
    location    "0.75";
    object      phi;
}
// * * * * * * * * * * * * * * * * * * * * * * * * * * * * * * * * * * * * * //

dimensions      [0 3 -1 0 0 0 0];

oriented        oriented;

internalField   nonuniform List<scalar> 
338621
(
24.9948
0.00257703
0.00124472
24.9869
0.00523429
0.00263411
24.9745
0.00815833
0.00425034
24.957
0.0112215
0.00621762
24.9335
0.0145393
0.00883198
24.9005
0.0205267
0.0122453
24.8538
0.0299697
0.0165619
24.7909
0.0404843
0.0220832
24.7293
0.0321554
0.0290379
24.6866
0.00477901
0.0373404
24.659
-0.0198152
0.0468509
24.5857
0.0154822
0.057126
24.6145
-0.0974404
0.0678814
24.7447
-0.208987
0.0781181
24.7857
-0.128836
0.0871517
24.8171
-0.126359
0.0945163
24.8449
-0.128265
0.100138
24.8673
-0.127014
0.104413
24.8862
-0.126429
0.10743
24.9125
-0.135856
0.109542
24.9422
-0.140506
0.110774
24.9651
-0.134447
0.111589
24.9829
-0.129958
0.112176
24.9977
-0.127353
0.11251
25.0105
-0.125617
0.112815
25.0215
-0.124121
0.113157
25.0312
-0.123191
0.113504
25.0396
-0.122273
0.113866
25.0468
-0.121516
0.114342
25.0531
-0.121169
0.114891
25.0586
-0.120969
0.115473
25.0635
-0.120916
0.116028
25.0678
-0.120924
0.116633
25.0715
-0.120979
0.117228
25.0749
-0.121083
0.117733
25.0782
-0.121528
0.118146
25.0817
-0.121805
0.118395
25.0852
-0.122093
0.118535
25.0891
-0.122437
0.11851
-0.123108
0.118065
24.9948
0.00511984
0.00122135
24.9869
0.0105839
0.00255119
24.974
0.0168173
0.00414541
24.9564
0.0226671
0.00608909
24.9329
0.0292682
0.00867329
24.9032
0.0380997
0.0119725
24.8674
0.0491662
0.0163309
24.8218
0.0639174
0.0219332
24.7575
0.0670276
0.029056
24.6833
0.0407849
0.0377498
24.6411
-0.0261346
0.0480261
24.6285
-0.0315004
0.0590274
24.6673
-0.208195
0.0713489
24.7509
-0.375986
0.0827952
24.8304
-0.301261
0.0924952
24.8976
-0.294133
0.10016
24.9489
-0.285554
0.105892
24.9901
-0.27845
0.110095
25.0344
-0.283818
0.113043
25.068
-0.284379
0.114933
25.0881
-0.276709
0.116087
25.1026
-0.265682
0.116761
25.1127
-0.257366
0.117296
25.121
-0.253235
0.117648
25.1275
-0.25008
0.11796
25.1329
-0.247749
0.118263
25.1367
-0.245708
0.11865
25.1401
-0.24471
0.119088
25.1431
-0.244129
0.119613
25.1453
-0.2436
0.120206
25.1471
-0.243559
0.120835
25.1482
-0.24346
0.121471
25.1491
-0.244012
0.122106
25.1499
-0.244404
0.122695
25.1505
-0.244886
0.123198
25.151
-0.245708
0.123628
25.1517
-0.246373
0.123867
25.1528
-0.24712
0.124004
25.1546
-0.248169
0.123931
-0.248653
0.123497
24.9952
0.00729736
0.00116395
24.9873
0.0159814
0.0024295
24.9752
0.0250143
0.00391405
24.957
0.0349526
0.00583771
24.9324
0.0453885
0.00832674
24.9011
0.0577236
0.0115723
24.8611
0.0729846
0.0159645
24.812
0.0910909
0.0216871
24.7433
0.106281
0.029211
24.6456
0.0993426
0.038826
24.5697
0.00554162
0.0505965
-0.0059311
0.00507621
-0.0058282
24.6671
-0.0385291
0.0644961
-0.0582297
-0.0385638
-0.0584639
24.5596
-0.0107797
0.0777422
-0.0949692
0.0209933
-0.0940659
24.7316
-0.181673
0.0906527
-0.123323
-0.212112
-0.121894
24.8238
-0.12832
0.100641
-0.120942
-0.126412
-0.118731
24.8835
-0.117548
0.108201
-0.115679
-0.115179
-0.113765
24.9365
-0.113873
0.113698
-0.114137
-0.112226
-0.111993
25.0014
-0.116518
0.117579
-0.115469
-0.1149
-0.113948
25.0437
-0.112979
0.120164
-0.111541
-0.111487
-0.110143
25.069
-0.109124
0.121577
-0.107999
-0.107623
-0.106458
25.0869
-0.416674
0.122113
25.1009
-0.401943
0.122302
25.1099
-0.388927
0.122547
25.1171
-0.383241
0.122813
25.1231
-0.379187
0.123086
25.1278
-0.375766
0.123341
25.1312
-0.372741
0.123625
25.1341
-0.371555
0.123973
25.1358
-0.370221
0.124392
25.1374
-0.370091
0.124875
25.1383
-0.369792
0.125398
25.1389
-0.369994
0.125938
25.1388
-0.370397
0.126418
25.1387
-0.371176
0.126948
25.138
-0.371568
0.127331
25.1372
-0.37258
0.127658
25.1368
-0.373723
0.127796
25.1366
-0.374791
0.127818
25.1367
-0.375883
0.127637
-0.376849
0.127175
24.9955
0.00970982
0.00107539
24.9886
0.0205922
0.00224492
24.9767
0.0332887
0.00359371
24.9597
0.0464739
0.00541339
24.9351
0.0622454
0.00773308
24.9006
0.0812305
0.0108488
24.8551
0.103235
0.015111
24.7971
0.128086
0.0208407
24.7306
0.143905
0.0286483
6.14169
0.0371133
0.0391405
0.0542747
0.0378862
0.053664
6.16378
6.14069
6.16163
6.12414
0.0173564
0.00571458
-6.11113
6.09904
-0.0339781
0.00752195
-6.10299
6.12446
-0.0416712
0.00939896
-6.11669
6.14352
-0.219822
0.0113086
-6.16216
6.17631
-0.155168
0.0126852
-6.18952
6.20016
-0.141775
0.0135866
-6.21143
6.22567
-0.142382
0.0142766
-6.23754
6.24463
-0.138364
0.0147641
-6.2503
6.25537
-0.133114
0.0150706
-6.25967
6.2636
-0.128318
0.0152728
25.0971
-0.139668
0.126429
-0.140396
-0.139909
-0.141551
-6.26715
-6.27186
-6.26764
-6.27198
25.1032
-0.534008
0.125956
25.1069
-0.518328
0.125736
25.1108
-0.512896
0.125771
25.1128
-0.507212
0.126028
25.1133
-0.502664
0.126424
25.1135
-0.499901
0.12695
25.1125
-0.498133
0.127585
25.1105
-0.496543
0.128281
25.1076
-0.496204
0.128988
25.1042
-0.495955
0.129655
25.0998
-0.495889
0.130243
25.0946
-0.495849
0.130681
25.0889
-0.49657
0.131099
25.0828
-0.496785
0.131283
25.0762
-0.497317
0.131346
25.0695
-0.498162
0.131164
25.0628
-0.498879
0.130755
25.0573
-0.500515
0.130126
-0.501008
0.129226
24.9972
0.0103908
0.000955153
24.9912
0.0246017
0.00199239
24.9813
0.0399305
0.00317935
24.9658
0.0571568
0.00479416
24.9429
0.0782411
0.00685293
24.9095
0.104911
0.00963292
24.8597
0.139518
0.0134358
24.7857
0.183225
0.0187312
6.17143
0.232761
0.0259999
6.16418
6.17101
6.16413
6.15541
0.0492241
0.00389668
6.13013
0.00547169
-6.15796
0.0200851
0.0119232
0.0116583
0.0203464
-0.0416484
-6.07745
6.04333
0.00742274
-0.00214961
0.00424631
0.00371871
-0.0018313
0.0227075
-6.04289
6.06121
0.00962196
0.0293348
-0.0399438
-0.0402544
-0.0188518
0.0417852
-6.11361
6.13882
0.0118817
-0.0514518
-0.0662275
-0.10421
-0.0518565
0.236673
-6.17103
6.18278
0.0126945
-0.0497204
-0.0536441
-0.0529936
-0.0500829
0.182003
-6.19437
6.20782
0.0130751
-0.0499707
-0.0492315
-0.0491384
-0.050041
0.171864
-6.22143
6.23326
0.0133147
-0.047938
-0.0480136
-0.0478488
-0.048149
0.166829
-6.24283
6.24993
0.0134303
-0.0449679
-0.0451837
-0.0448337
-0.0453705
0.159851
-6.2561
6.26045
0.0135838
-0.0422644
-0.0428677
-0.0423801
-0.0427917
0.152377
-6.26436
6.26644
0.0138112
-0.0400918
-0.0409118
-0.0403855
-0.0406263
0.146132
-6.26963
6.27139
-0.155332
0.013913
25.0502
-0.617529
0.112575
-6.27206
-6.26718
-6.27278
-6.26721
25.0289
-0.608152
0.111098
25.0056
-0.599015
0.109476
24.9818
-0.591461
0.107962
24.9591
-0.586694
0.106756
24.9369
-0.583585
0.105911
24.9149
-0.581438
0.105355
24.8935
-0.580155
0.104993
24.8719
-0.579329
0.104729
24.8504
-0.579028
0.104496
24.8294
-0.579037
0.10424
24.8087
-0.5791
0.103893
24.788
-0.579407
0.103549
24.7681
-0.579925
0.103066
24.7488
-0.580476
0.102461
24.7303
-0.581356
0.101662
24.7134
-0.582566
0.100601
24.6983
-0.584627
0.0992529
-0.588286
0.0975612
24.9999
0.00903362
0.000804468
24.9965
0.0262827
0.00167133
24.9889
0.0448113
0.00267118
24.9771
0.0649522
0.0039521
24.9595
0.0901662
0.00564387
24.9325
0.124024
0.00787055
24.8895
0.171615
0.0108514
24.8173
0.240293
0.0150148
6.17102
0.346445
0.0205998
6.17057
6.171
6.17039
-0.0651779
6.14548
0.0876302
0.00307859
-0.019672
-1.52772
1.52259
0.0242242
0.000576576
-0.0195053
-1.50446
1.49237
0.030885
0.000714989
-1.46892
0.0519308
1.47886
-0.062946
0.00107861
-1.53062
0.0838393
1.5394
-0.0937674
0.00114806
-1.53737
0.0594603
-0.0624992
0.00124397
1.53917
-1.54814
0.0573181
-0.060908
0.00103033
1.5507
0.0545988
-1.55658
1.5581
-0.0571492
0.0010384
0.0501307
-1.56112
1.56167
-0.0518145
0.00114188
0.0470105
-1.56221
1.56224
-0.0484033
0.0013664
0.0445176
-1.56141
1.56099
-0.0457616
0.0016681
-1.55598
0.163542
6.17547
-0.143867
0.00793039
-1.54011
-1.5586
-1.54838
23.8562
-0.693656
0.0498389
-6.11253
-5.81581
-6.10835
-5.79321
23.8738
-0.676224
0.0504978
23.8897
-0.665562
0.0506227
23.905
-0.657278
0.0505349
23.9187
-0.651076
0.0506301
23.9305
-0.646318
0.050927
23.9405
-0.642655
0.0512787
23.9486
-0.639839
0.0515299
23.9555
-0.637734
0.0515737
23.9613
-0.636182
0.0513522
23.9664
-0.63503
0.0508458
23.9716
-0.634289
0.0500395
23.9769
-0.633752
0.0490188
23.9825
-0.633334
0.0477508
23.989
-0.633177
0.0462553
23.9962
-0.633047
0.0445148
24.0041
-0.632991
0.0424663
24.0125
-0.632996
0.0400034
-0.632663
0.0370126
25.0031
0.00510552
0.00065108
25.0037
0.0243598
0.00132031
25.0008
0.0455313
0.00208674
24.9952
0.0675759
0.00299197
24.9865
0.0947091
0.00415656
24.973
0.131812
0.00566996
24.9534
0.183656
0.00754621
24.9224
0.261358
0.00994079
6.21346
0.386924
0.0127385
6.22148
6.21314
6.22111
-0.105944
6.19811
0.119479
0.00181724
-0.0393078
-1.54215
1.53602
0.0451305
0.000305889
-0.0821528
-1.50674
1.48834
0.1003
0.000251226
0.00436846
-0.0747092
0.0748892
-0.00457948
3.10311e-05
-0.0214192
0.000448628
0.0209315
2.23188e-06
3.68916e-05
-0.206656
0.0106806
-0.021882
-0.00168368
0.219541
-1.15008
0.0496707
-0.0705336
-0.00174912
1.17269
0.046162
-1.22188
1.23324
-0.0547705
-0.00274606
0.046731
-1.26774
1.2791
-0.0547787
-0.00331653
0.0460538
-1.30929
1.31877
-0.051604
-0.00393699
0.0464747
-1.34396
1.3528
-0.0508852
-0.00443254
-1.39021
0.162445
5.74454
-0.201574
-0.0139363
-1.48808
-1.33603
-1.47716
24.0225
-0.646011
-0.084865
-5.81783
-6.16472
-5.83858
-6.16416
24.051
-0.61995
-0.084799
24.0783
-0.608293
-0.084522
24.1056
-0.600488
-0.0841414
24.1324
-0.594319
-0.0835274
24.1585
-0.589834
-0.0825515
24.1838
-0.58676
-0.0812895
24.2084
-0.58462
-0.0797372
24.2319
-0.583214
-0.0780224
24.2542
-0.582308
-0.0762491
24.2755
-0.581727
-0.0745525
24.2956
-0.581436
-0.0729661
24.3148
-0.581251
-0.0716594
24.3331
-0.581066
-0.0705985
24.3506
-0.580749
-0.0698954
24.3675
-0.580433
-0.0695992
24.3841
-0.579764
-0.0697493
24.4
-0.578455
-0.0704443
-0.575653
-0.0717621
25.0049
4.65856e-05
0.000475062
25.0102
0.0180612
0.000948511
25.0152
0.0390458
0.00144439
25.0193
0.0615065
0.0019979
25.0213
0.0901258
0.00258979
25.0265
0.12341
0.0032812
25.0386
0.167629
0.00392531
25.0646
0.231148
0.00432968
6.27448
0.331577
0.00412759
6.28226
6.27465
6.28446
-0.11154
6.28221
0.103381
0.000428966
-0.0445347
-1.57798
1.57968
0.0428174
1.87329e-05
-0.0838134
-1.59821
1.61317
-0.000193178
0.0690449
-0.0256009
-1.71228
1.75043
-0.00127672
0.0560074
-0.0208015
-0.0256841
-0.0207955
0.0965302
-1.71216
1.68321
-0.000645606
-0.0669368
0.0999924
-1.61003
-0.000884475
1.59944
-0.0885195
0.0761082
-1.58477
-0.00101234
1.58181
-0.072137
0.0549335
-1.57706
1.57609
-0.0528731
-0.00108968
0.0556243
-1.57423
1.57239
-0.0526108
-0.00117656
0.0499539
-1.57191
1.57124
-0.0480024
-0.00127835
0.0463342
-1.57024
1.56973
-0.0444348
-0.00138359
-1.56732
0.169872
6.26434
-0.154351
-0.0114796
-1.56687
-1.56714
-1.56704
25.0727
-0.531788
-0.110803
-6.26825
-6.26814
-6.2708
-6.2689
25.0756
-0.511708
-0.11118
25.0744
-0.496099
-0.111
25.0719
-0.48737
-0.110643
25.0694
-0.481549
-0.110222
25.0669
-0.477688
-0.109691
25.0645
-0.475166
-0.109172
25.0619
-0.473357
-0.108645
25.0596
-0.472726
-0.108197
25.0574
-0.472233
-0.107868
25.0552
-0.471792
-0.107745
25.0533
-0.471911
-0.107702
25.0518
-0.47178
-0.107929
25.0503
-0.471232
-0.108303
25.0495
-0.471022
-0.108934
25.0492
-0.470309
-0.109826
25.0495
-0.46914
-0.110989
25.0508
-0.467204
-0.112468
-0.464679
-0.114158
25.0058
-0.0050552
0.000255139
25.0144
0.00891217
0.000569125
25.0275
0.0250791
0.000822292
25.039
0.0490231
0.00102063
25.0545
0.0735542
0.00112065
25.0781
0.0988732
0.00102326
25.116
0.129233
0.000562109
25.1792
0.168804
-0.000721632
6.32062
0.230456
-0.00332273
6.31881
6.32493
6.31936
-0.0886549
6.33668
0.0733289
-0.000726591
-0.0331937
6.41307
0.0875808
-0.0016539
-0.0343532
-0.0332796
-0.03386
-6.36432
-0.0332879
6.51628
0.0754523
-0.00340438
-0.0260236
-0.0330653
-0.0258746
-6.47008
-0.00735834
-6.54655
6.51275
-0.00554501
-0.00593141
0.0149225
-0.0075589
0.0452619
0.0448515
-6.53485
6.51357
-0.122256
-0.00853004
0.0387151
0.0355125
0.0329893
0.0545503
-6.44931
6.41179
-0.176494
-0.0105922
0.0551169
0.056962
0.0579905
0.0559763
-6.37184
6.3397
-0.174912
-0.0119738
0.0547153
0.0549649
0.0533743
0.0462449
-6.32156
6.31031
-0.156911
-0.0129852
0.0453181
0.0450977
0.0444741
0.0442201
-6.3016
6.29567
-0.155915
-0.013684
0.0439811
0.0437716
0.0435413
0.0411582
-6.29119
6.28579
-0.142874
-0.0141071
0.0406394
0.0406147
0.0399556
0.0381334
-6.28154
6.27611
-0.130458
-0.0143491
0.0376405
0.0375513
0.03691
0.140001
-6.27455
6.27281
-0.123799
-0.014465
25.0732
-0.401383
-0.122438
-6.27039
-6.27046
-6.27066
-6.26966
25.0668
-0.383752
-0.121552
25.0639
-0.372505
-0.120779
25.0619
-0.365035
-0.120247
25.0602
-0.360084
-0.119867
25.0587
-0.356577
-0.119565
25.0572
-0.354386
-0.119324
25.056
-0.35301
-0.119135
25.0545
-0.352264
-0.11899
25.0531
-0.351934
-0.118881
25.0518
-0.351626
-0.118842
25.0506
-0.351936
-0.118813
25.0494
-0.35172
-0.118797
25.049
-0.35198
-0.118882
25.0488
-0.351728
-0.119066
25.0489
-0.351033
-0.119355
25.05
-0.350489
-0.119804
25.0527
-0.349408
-0.120471
-0.348227
-0.121374
25.0065
-0.0102464
0.000164665
25.0165
-0.00140224
0.000287853
25.0256
0.0156817
0.000319412
25.0424
0.0320376
0.000242767
25.0692
0.0468512
-8.03948e-05
25.1028
0.0661295
-0.000778338
25.1504
0.0838683
-0.00208146
25.2168
0.107041
-0.00445912
25.3257
0.13036
-0.00857288
25.4303
0.143486
-0.0152894
-0.0611404
-0.0566704
-0.0583182
-0.0565313
25.5772
0.130451
-0.0254648
-0.0604504
-0.0638033
-0.0610027
-0.0663561
25.7102
0.0525396
-0.0398664
-0.0417075
-0.0279345
-0.044647
-0.0311193
25.5883
-0.158131
-0.0571039
0.0213316
0.124006
0.0203827
0.171742
25.497
-0.239409
-0.0756163
0.0831832
0.116773
0.0990372
0.107765
25.429
-0.250655
-0.091369
0.0829959
0.148561
0.0317272
0.147058
25.3435
-0.355434
-0.103254
0.135589
0.13866
0.134032
0.1361
25.2594
-0.325443
-0.111071
0.129477
0.133139
0.127358
0.130632
25.1934
-0.335067
-0.116001
0.132407
0.129296
0.129461
0.125841
25.1508
-0.312959
-0.118877
0.122028
0.118729
0.118919
0.114747
25.1278
-0.29252
-0.120395
0.110974
0.110582
0.106479
0.107792
25.1095
-0.276463
-0.12098
0.105823
0.104953
0.103263
0.101715
25.0937
-0.264898
-0.120751
25.0845
-0.254323
-0.120254
25.0787
-0.24685
-0.119821
25.0743
-0.241181
-0.119523
25.0707
-0.237268
-0.11921
25.0681
-0.234971
-0.118969
25.0652
-0.232748
-0.118812
25.0629
-0.231891
-0.118754
25.0604
-0.230996
-0.118806
25.0584
-0.230916
-0.118961
25.0567
-0.230795
-0.11922
25.0549
-0.230495
-0.119577
25.0538
-0.230682
-0.119934
25.0525
-0.230303
-0.120425
25.0518
-0.230051
-0.120948
25.0521
-0.229832
-0.121536
25.0532
-0.229373
-0.122206
25.0547
-0.227865
-0.122983
-0.226517
-0.123862
25.0068
-0.0152372
6.40869e-05
25.0101
-0.00481165
8.49747e-05
25.0181
0.00777778
-3.38282e-05
25.0379
0.0125414
-0.000285147
25.0637
0.0220615
-0.000873586
25.0933
0.0386069
-0.00196015
25.1414
0.0397138
-0.00376274
25.2027
0.052675
-0.00667503
25.2817
0.062957
-0.0113338
25.3771
0.0667711
-0.0183
25.4833
0.0529536
-0.0281455
25.5625
0.0152247
-0.041345
25.5397
-0.0778499
-0.0568908
25.5255
-0.151727
-0.0728901
25.4031
-0.0406443
-0.0870406
25.3208
-0.174462
-0.098366
25.2711
-0.169298
-0.106187
25.2101
-0.162512
-0.111501
25.1659
-0.154025
-0.114715
25.1349
-0.144938
-0.11654
25.1125
-0.136645
-0.117424
25.0954
-0.130239
-0.117552
25.0833
-0.124938
-0.117361
25.0746
-0.121144
-0.116998
25.0683
-0.11826
-0.116644
25.0637
-0.116391
-0.116225
25.0595
-0.114874
-0.115917
25.0565
-0.114048
-0.115726
25.054
-0.113795
-0.115589
25.0518
-0.113278
-0.115577
25.05
-0.113431
-0.115654
25.0482
-0.113194
-0.115814
25.0472
-0.11349
-0.115998
25.0461
-0.113342
-0.116235
25.0459
-0.113548
-0.11652
25.0459
-0.113226
-0.116813
25.0465
-0.113311
-0.117124
25.0476
-0.113048
-0.117478
25.0502
-0.112485
-0.117915
-0.112788
-0.118484
24.9871
3.0213e-05
24.9823
2.85527e-05
24.9903
-0.000164144
25.0033
-0.000437462
25.0266
-0.00117046
25.0678
-0.00236448
25.112
-0.00431817
25.1724
-0.00743315
25.2481
-0.0122608
25.3345
-0.0191779
25.4167
-0.0286137
25.4735
-0.0408035
25.4512
-0.0548461
25.3695
-0.0692959
25.4119
-0.0824311
25.3314
-0.0935163
25.2638
-0.101399
25.2081
-0.106633
25.1641
-0.109899
25.1309
-0.111776
25.107
-0.112716
25.0897
-0.112967
25.0776
-0.112811
25.0688
-0.112415
25.0626
-0.112052
25.0579
-0.111682
25.0544
-0.111414
25.0517
-0.111325
25.0491
-0.111249
25.0472
-0.111337
25.0453
-0.111555
25.0439
-0.111814
25.0426
-0.112113
25.0417
-0.112474
25.0411
-0.112919
25.0412
-0.113352
25.0417
-0.113778
25.0428
-0.114221
25.0451
-0.114721
-0.11533
24.9952
0.00197594
0.00241339
24.9879
0.00478194
0.00503292
24.9765
0.00736883
0.00813269
24.96
0.0104978
0.0119906
24.9382
0.0133083
0.0169341
24.9086
0.0179752
0.0233896
24.8665
0.0261473
0.0317634
24.8092
0.0359511
0.042486
24.7539
0.0272589
0.0558873
24.7181
-0.000799176
0.0723138
24.694
-0.0220282
0.0911347
24.6326
0.00463787
0.111837
24.6616
-0.0965157
0.133149
24.7793
-0.195404
0.153713
24.8116
-0.118659
0.171663
24.8354
-0.116837
0.186129
24.8583
-0.121017
0.197204
24.8775
-0.120799
0.2055
24.8942
-0.121093
0.21148
24.9215
-0.133516
0.215649
24.9488
-0.134901
0.218351
24.97
-0.129808
0.220165
24.9869
-0.126105
0.221438
25.001
-0.123951
0.222408
25.0127
-0.122126
0.223231
25.023
-0.121061
0.223997
25.0317
-0.11995
0.224764
25.039
-0.119052
0.225557
25.0456
-0.11858
0.226425
25.0513
-0.118261
0.227381
25.0562
-0.117817
0.228388
25.0603
-0.117484
0.229425
25.0643
-0.117756
0.230437
25.0682
-0.118097
0.231459
25.0716
-0.117998
0.232347
25.0751
-0.118508
0.233154
25.0786
-0.118795
0.233658
25.0823
-0.119187
0.233985
25.0868
-0.119849
0.233892
-0.12036
0.232812
24.9953
0.00396601
0.00235701
24.9881
0.00954534
0.00491778
24.9762
0.0152975
0.00795796
24.9597
0.0210399
0.0117631
24.9376
0.0271621
0.0166622
24.9098
0.0341845
0.0231051
24.8766
0.0434422
0.0315334
24.8342
0.0570139
0.0424883
24.7717
0.0612101
0.056483
24.6967
0.036754
0.0739405
24.6546
-0.0279597
0.0945918
24.5942
0.00463147
0.117739
24.63
-0.204413
0.141622
24.762
-0.410785
0.164461
24.8421
-0.291389
0.183718
24.9093
-0.283721
0.198849
24.9591
-0.275808
0.210295
24.9992
-0.269652
0.218616
25.0443
-0.277792
0.22452
25.0765
-0.279199
0.228451
25.0954
-0.268619
0.230956
25.1088
-0.259096
0.232629
25.118
-0.251857
0.2339
25.1251
-0.248289
0.234916
25.131
-0.245861
0.235795
25.1353
-0.243665
0.236624
25.1384
-0.2419
0.237489
25.1414
-0.241312
0.238429
25.1435
-0.240557
0.239459
25.1449
-0.240048
0.240562
25.1463
-0.240002
0.241711
25.1475
-0.24014
0.242872
25.148
-0.240197
0.244051
25.1483
-0.240882
0.245146
25.1491
-0.241704
0.246134
25.1494
-0.242151
0.246956
25.1502
-0.243234
0.247545
25.1516
-0.244439
0.247847
25.1531
-0.245219
0.247787
-0.246433
0.246716
24.9954
0.0059356
0.00224458
24.9884
0.0141823
0.004688
24.9768
0.0231368
0.00760224
24.9599
0.0323076
0.0112746
24.9367
0.0423006
0.0160513
24.9066
0.0530684
0.0224146
24.8686
0.0659818
0.0309092
24.8223
0.0821443
0.042235
24.757
0.0977464
0.0572021
24.6625
0.0926421
0.0765317
24.5863
0.0044598
0.100438
-0.00593285
0.00418173
-0.00524499
24.7216
-0.0391366
0.127943
-0.0593993
-0.0386033
-0.0581419
24.5804
0.0209091
0.156336
-0.0948863
0.0227556
-0.0918682
24.742
-0.214124
0.183154
-0.122834
-0.210731
-0.118321
24.8308
-0.127345
0.203718
-0.119673
-0.122806
-0.114372
24.8891
-0.11648
0.219061
-0.115209
-0.111692
-0.109892
24.9421
-0.113996
0.230432
-0.113742
-0.109029
-0.108649
25.007
-0.116669
0.238425
-0.115753
-0.111837
-0.110834
25.049
-0.113504
0.243746
-0.112277
-0.108971
-0.108299
25.0745
-0.110216
0.246901
-0.108624
-0.106482
-0.104523
25.0926
-0.412851
0.248362
25.1051
-0.398516
0.249282
25.1135
-0.387813
0.250144
25.1199
-0.383506
0.251658
25.125
-0.380695
0.252827
25.1289
-0.378312
0.254104
25.1322
-0.376328
0.254824
25.1342
-0.375176
0.255805
25.1356
-0.374401
0.256816
25.1373
-0.37468
0.25787
25.1377
-0.373946
0.258952
25.1379
-0.374466
0.26005
25.1383
-0.37511
0.260891
25.1378
-0.375579
0.26218
25.1369
-0.376587
0.263106
25.1362
-0.377692
0.263872
25.1355
-0.379106
0.264394
25.1349
-0.380641
0.264592
25.1352
-0.382284
0.264418
-0.383722
0.263264
24.9964
0.0074959
0.00207201
24.9898
0.0186425
0.00433062
24.9785
0.0309232
0.00703287
24.9619
0.0436922
0.0104602
24.9386
0.0580597
0.0149685
24.9055
0.0756879
0.0210575
24.8608
0.0959653
0.0294018
24.803
0.119411
0.0408589
24.7351
0.13719
0.0566458
6.14295
0.0370326
0.0782486
0.0517542
0.0368646
0.051231
6.1629
6.14313
6.1624
-0.0113431
6.12592
0.0155732
0.017208
-0.0150621
-6.11416
6.10251
-0.0353256
0.0228412
-0.0189596
-6.1067
6.09931
0.0183869
0.0288223
-0.0228529
-6.11473
6.14651
-0.257914
0.0348171
-0.0257188
-6.16444
6.17804
-0.154547
0.0392771
-0.0276981
-6.19091
6.20153
-0.141738
0.0423337
-0.0291481
-6.21227
6.22654
-0.143702
0.0446203
-0.0301473
-6.23921
6.24638
-0.139872
0.0462328
-0.0307767
-6.25213
6.25726
-0.135039
0.0472254
-0.0311179
-6.26094
6.26482
-0.130759
0.0478084
25.0976
-0.143713
0.269353
-0.143963
-0.143998
-0.141618
-6.26847
-6.27212
-6.26793
-6.27141
25.1041
-0.547812
0.26875
25.1076
-0.533852
0.268353
25.1107
-0.530743
0.269917
25.1124
-0.527775
0.271459
25.1124
-0.525233
0.27336
25.1121
-0.523895
0.274749
25.1109
-0.522721
0.27636
25.1087
-0.52178
0.277912
25.1051
-0.521538
0.279386
25.1011
-0.520991
0.280762
25.096
-0.521128
0.282019
25.0898
-0.521115
0.28286
25.083
-0.521751
0.284046
25.0756
-0.522521
0.284667
25.0679
-0.523766
0.285104
25.0596
-0.524706
0.285069
25.0515
-0.526399
0.284564
25.0449
-0.528933
0.283462
-0.530548
0.281155
24.9982
0.00737001
0.00183674
24.9928
0.0221088
0.00384204
24.983
0.0375711
0.00623368
24.9681
0.0540047
0.00926928
24.9458
0.0737877
0.0132845
24.9135
0.0988789
0.0184993
24.8647
0.131473
0.0263582
24.7923
0.173247
0.0370145
6.17334
0.22232
0.0522667
6.16656
6.17381
6.16686
-0.00772817
6.1584
0.0479212
0.0117625
-0.01093
6.13289
0.0166924
-6.16114
0.0191479
0.0109614
0.0194422
0.0106703
-0.0377176
-0.0149691
-6.08079
6.04823
0.0230569
-0.00315256
0.00253065
-0.00307735
0.00238521
0.0258049
-0.0196417
-6.04715
6.06099
0.0304606
0.0516685
-0.0411381
0.0512924
-0.0410132
-0.0453596
-0.0241466
-6.1012
6.14175
0.0376791
-0.051228
-0.129415
-0.0517723
-0.129067
0.307517
-0.0260323
-6.17159
6.18198
0.0411621
-0.0500805
-0.0535458
-0.0504582
-0.0531677
0.181767
-0.0272231
-6.19447
6.2081
0.0431993
-0.0510972
-0.0504307
-0.0513486
-0.0501839
0.17351
-0.0280494
-6.22173
6.23377
0.0446934
-0.0495609
-0.0496503
-0.0497878
-0.0494503
0.169888
-0.0285297
-6.24356
6.25082
0.045536
-0.0465689
-0.0469691
-0.0470982
-0.0467165
0.1632
-0.0288506
-6.25722
6.26137
0.0459488
-0.0440523
-0.044594
-0.0443975
-0.0442741
0.156136
-0.0291074
-6.26523
6.26709
0.0462
-0.0419786
-0.0424585
-0.0420399
-0.0421497
0.149698
-6.26922
-0.029176
6.27095
-0.162836
0.0465778
25.0383
-0.661141
0.259831
-6.27176
-6.26453
-6.27143
-6.2645
25.0122
-0.653348
0.256701
24.985
-0.648452
0.254441
24.9582
-0.645002
0.25203
24.9331
-0.643547
0.250098
24.9091
-0.642743
0.24879
24.8864
-0.64191
0.247288
24.8644
-0.641111
0.246266
24.8425
-0.640281
0.24539
24.821
-0.639593
0.244577
24.7998
-0.639159
0.243526
24.7786
-0.63895
0.242919
24.7574
-0.638875
0.241876
24.7366
-0.639354
0.240644
24.7162
-0.639967
0.239137
24.6969
-0.64094
0.23718
24.6789
-0.642403
0.234596
24.6629
-0.644892
0.231216
-0.649267
0.226552
25.0019
0.0039958
0.00153063
24.9995
0.022917
0.0032218
24.9917
0.0428075
0.00520532
24.9795
0.0623644
0.00769407
24.9619
0.0859708
0.0109573
24.9359
0.117774
0.0148664
24.8936
0.162944
0.0214618
24.8226
0.229116
0.0299538
6.17285
0.333031
0.0423245
6.17189
6.17319
6.172
-0.0060767
-0.0627125
6.14764
0.0845049
0.00946506
-0.0019721
-0.0186576
-1.52827
1.5231
0.023176
0.00261872
-0.00286842
-0.0173579
-1.5051
1.49271
0.0289567
0.00367799
-0.00418026
-1.47031
0.0531367
1.48032
-0.0642685
0.00535142
-0.00537917
-1.5297
0.153733
1.54114
-0.166758
0.00701256
-0.00464847
-1.53744
0.0597208
-0.0631025
1.53931
0.00619126
-1.54837
-0.00475076
0.059202
-0.0633185
0.00615292
1.55109
-0.0047561
0.0571833
-1.55672
1.55817
-0.0601969
0.00631857
-0.004786
0.053068
-1.56109
1.5616
-0.0553981
0.00661266
-0.00489319
0.0498541
-1.56206
1.56206
-0.0518574
0.00690722
-0.0049767
0.0468928
-1.56121
1.56074
-0.0484745
0.00702459
-1.55437
-0.01772
0.175274
6.15909
-0.163796
0.0322846
-1.53759
-1.55446
-1.53872
23.8154
-0.757899
0.117412
-6.09826
-5.79164
-6.0998
-5.79656
23.8307
-0.736377
0.118322
23.845
-0.730002
0.117865
23.8598
-0.725488
0.116215
23.8744
-0.722261
0.114697
23.8884
-0.71948
0.113707
23.9021
-0.716804
0.112408
23.9154
-0.714172
0.111369
23.9281
-0.711696
0.110233
23.9404
-0.709416
0.108882
23.9525
-0.707383
0.106999
23.964
-0.705713
0.105243
23.9756
-0.704306
0.10286
23.9871
-0.703153
0.100102
23.9987
-0.702203
0.0969054
24.0104
-0.701402
0.0931965
24.0224
-0.700707
0.088788
24.0343
-0.700087
0.083286
-0.699443
0.0758035
25.009
0.00270494
0.00125339
25.0097
0.0209692
0.00253531
25.0063
0.0442622
0.00402298
24.9994
0.0663141
0.00583627
24.9894
0.0919996
0.00812614
24.9757
0.126473
0.0105955
24.9561
0.175095
0.0149751
24.9255
0.249643
0.0199998
6.21375
0.373407
0.0267862
6.22168
6.21379
6.22183
-0.00362775
-0.102353
6.19828
0.115749
0.00569844
-0.00108815
-0.0381758
-1.5421
1.53595
0.0439675
0.00144957
-0.00137986
-0.080308
-1.50614
1.48781
0.0982784
0.00174856
-0.000204688
0.00455227
-0.0748583
0.075106
-0.00481549
0.00022049
0.00563231
-0.204434
0.0120104
-0.0228014
-0.00565505
0.215247
-1.14094
0.00536643
0.0506357
-0.0742348
-0.00667342
1.16585
0.00575173
0.0464033
-1.22284
1.23567
-0.0574519
-0.00752112
0.00618698
0.0496921
-1.27238
1.28406
-0.0594168
-0.00813679
0.00571404
0.0491266
-1.3129
1.32138
-0.0555233
-0.00779592
0.00467459
0.0482502
-1.34209
1.34941
-0.0534695
-0.00676957
-1.39053
0.0155652
0.192142
5.81259
-0.217139
-0.0313669
-1.49486
-1.3913
-1.4951
24.1272
-0.686237
-0.200409
-5.87222
-6.17195
-5.86351
-6.17563
24.1659
-0.660025
-0.199847
24.2007
-0.651277
-0.19804
24.2321
-0.644955
-0.196165
24.2596
-0.639528
-0.193693
24.2833
-0.635193
-0.190572
24.3041
-0.631911
-0.18703
24.3229
-0.629354
-0.183311
24.3402
-0.627427
-0.179623
24.3566
-0.625974
-0.17612
24.3727
-0.625065
-0.172936
24.3888
-0.624691
-0.170122
24.4053
-0.624624
-0.1678
24.4219
-0.624418
-0.16595
24.4386
-0.624114
-0.164635
24.4551
-0.623598
-0.163937
24.4715
-0.622746
-0.16407
24.4872
-0.621015
-0.165305
-0.617245
-0.168073
25.0084
-0.00247268
0.000899095
25.0155
0.0129838
0.00180537
25.0222
0.0362114
0.00277498
25.0261
0.0605888
0.00385763
25.0254
0.090294
0.00508001
25.0296
0.119393
0.00618022
25.0413
0.159634
0.00780667
25.069
0.217489
0.00889136
6.27562
0.305962
0.0091387
6.28794
6.27692
6.2912
-0.000926708
-0.107461
6.28292
0.0996423
0.00146472
-0.000106467
-0.0434273
-1.57765
1.57929
0.0417602
0.000135701
0.000397444
-0.0800825
-1.59953
1.61598
0.0637211
-0.0005004
0.000929183
-0.0260808
-1.7113
1.74884
0.0580834
-0.000175669
-0.0215926
-0.0269855
-0.0217699
0.00188141
0.11043
-1.70976
1.67902
-0.0787492
-0.00287743
0.105823
-1.60918
0.00332708
1.59814
-0.0935017
-0.00463021
0.004158
0.0753797
-1.58333
-0.00572624
1.58123
-0.0716992
0.00466842
0.0557445
-1.578
1.57649
-0.0524786
-0.00642143
0.00507685
0.0575111
-1.57556
1.57408
-0.0542372
-0.00687713
0.00542684
0.0513739
-1.57317
1.57249
-0.0489407
-0.00718981
0.005667
0.0473115
-1.5697
1.57002
-0.0459295
-0.00737058
-1.57026
0.0246543
0.180452
6.27578
-0.158183
-0.0403359
-1.57032
-1.5706
-1.5712
25.0942
-0.529841
-0.250258
-6.27865
-6.27097
-6.2848
-6.27676
25.094
-0.520845
-0.250167
25.09
-0.509213
-0.249107
25.0852
-0.502308
-0.248432
25.0799
-0.496757
-0.247799
25.0753
-0.493202
-0.247064
25.071
-0.490407
-0.246324
25.0671
-0.488414
-0.245689
25.0637
-0.487034
-0.245236
25.0608
-0.485879
-0.245024
25.0583
-0.485275
-0.245098
25.0568
-0.485175
-0.245709
25.0555
-0.485109
-0.246156
25.0544
-0.484432
-0.24714
25.0541
-0.484371
-0.248427
25.0544
-0.483548
-0.250121
25.0552
-0.482215
-0.252318
25.0565
-0.479747
-0.255124
-0.476577
-0.258392
25.0071
-0.00721074
0.000568433
25.0173
0.00221607
0.00109717
25.0316
0.0212094
0.00158137
25.0401
0.0512119
0.00197439
25.0578
0.0717053
0.00218562
25.0811
0.0951981
0.00203079
25.1187
0.12168
0.00115294
25.1835
0.15336
-0.00113375
6.32939
0.193299
-0.00605969
6.3187
6.33366
6.31749
-0.0846219
0.00134656
6.34756
0.0671862
-0.00206792
-0.0324514
0.00332483
6.42069
0.0853768
-0.00480972
-0.0303678
-0.0325529
-0.0293208
-6.37991
-0.0286454
0.00690514
6.49051
0.0788056
-0.0100832
-0.0281328
-0.0274914
-0.0302062
-6.45168
-0.00887008
0.0117962
-6.53818
6.49728
-0.0597988
-0.0182576
0.0631711
-0.00991604
0.0627025
0.0352129
0.0179304
-6.49041
6.47271
-0.14511
-0.0275515
0.0515759
0.0346549
0.0509365
0.0583955
-6.44977
0.0230266
6.40681
-0.184079
-0.035097
0.0577058
0.0618846
0.0611608
0.0564024
0.0261645
-6.36712
6.33954
-0.178909
-0.0399046
0.0545362
0.0555536
0.0537563
0.0463671
0.0282155
-6.32567
6.31839
-0.161051
-0.043053
0.045759
0.0457279
0.0452553
0.045117
0.0295105
-6.31385
6.30566
-0.156683
-0.0450041
0.0455859
0.0445591
0.0450262
0.0441819
0.0301669
-6.2968
6.28778
-0.145828
-0.0460483
0.0416349
0.0437051
0.0411607
0.0390038
0.0304666
-6.28041
6.27278
-0.128186
-0.0465165
0.0359838
0.0395932
0.0372759
0.138587
-6.27155
0.0306595
6.27216
-0.123164
-0.0467009
25.0759
-0.38789
-0.260607
-6.2709
-6.26883
-6.27147
-6.26856
25.0708
-0.378507
-0.258841
25.068
-0.369934
-0.257283
25.0655
-0.363618
-0.25637
25.0637
-0.359335
-0.255535
25.0617
-0.356089
-0.254664
25.06
-0.354282
-0.2538
25.0586
-0.353199
-0.252999
25.0571
-0.352166
-0.25231
25.0561
-0.35202
-0.251769
25.055
-0.351619