/*--------------------------------*- C++ -*----------------------------------*\
| =========                 |                                                 |
| \\      /  F ield         | OpenFOAM: The Open Source CFD Toolbox           |
|  \\    /   O peration     | Version:  2306                                  |
|   \\  /    A nd           | Website:  www.openfoam.com                      |
|    \\/     M anipulation  |                                                 |
\*---------------------------------------------------------------------------*/
FoamFile
{
    version     2.0;
    format      ascii;
    arch        "LSB;label=32;scalar=64";
    class       volVectorField;
    location    "0.75";
    object      U;
}
// * * * * * * * * * * * * * * * * * * * * * * * * * * * * * * * * * * * * * //

dimensions      [0 1 -1 0 0 0 0];

internalField   nonuniform List<vector> 
111542
(
(99.9933 0.00576022 0.0024973)
(99.9707 0.0116561 0.00533112)
(99.9289 0.0176502 0.00856081)
(99.8667 0.023891 0.0126043)
(99.7829 0.0301265 0.0178133)
(99.6755 0.0355871 0.0246168)
(99.5437 0.0384192 0.0332769)
(99.3899 0.0356587 0.0443028)
(99.2235 0.0226673 0.0582321)
(99.0645 -0.00697767 0.0751523)
(98.9457 -0.0589916 0.0946582)
(98.9077 -0.131076 0.115955)
(98.9762 -0.205114 0.13819)
(99.1416 -0.261417 0.159363)
(99.3589 -0.289263 0.177856)
(99.5791 -0.298218 0.193167)
(99.7752 -0.297224 0.205081)
(99.9399 -0.290956 0.213991)
(100.074 -0.282333 0.220308)
(100.182 -0.273309 0.224632)
(100.266 -0.265141 0.227238)
(100.331 -0.258138 0.228704)
(100.382 -0.252182 0.229676)
(100.421 -0.247733 0.230238)
(100.452 -0.244672 0.230641)
(100.478 -0.242594 0.231235)
(100.5 -0.241628 0.231889)
(100.517 -0.241616 0.23268)
(100.531 -0.242187 0.233768)
(100.543 -0.243141 0.235117)
(100.552 -0.24436 0.236619)
(100.559 -0.245805 0.238121)
(100.565 -0.247256 0.239676)
(100.569 -0.248645 0.24121)
(100.573 -0.249971 0.242611)
(100.577 -0.251262 0.243771)
(100.581 -0.252597 0.244545)
(100.586 -0.253861 0.245019)
(100.593 -0.255101 0.245186)
(100.605 -0.256563 0.245099)
(99.9935 0.0171487 0.00245417)
(99.9714 0.0346391 0.00517324)
(99.9302 0.052817 0.00838499)
(99.8685 0.0720467 0.0124019)
(99.784 0.0917476 0.0175694)
(99.6734 0.10986 0.0243096)
(99.5336 0.121491 0.0330754)
(99.3642 0.117856 0.0444094)
(99.1712 0.0843457 0.0588317)
(98.9734 -9.60297e-05 0.0765738)
(98.8119 -0.152874 0.0974852)
(98.7525 -0.367607 0.119838)
(98.8394 -0.592001 0.143737)
(99.0504 -0.753999 0.166561)
(99.3125 -0.834767 0.18611)
(99.5609 -0.863984 0.201734)
(99.7717 -0.863768 0.213662)
(99.9433 -0.847447 0.222405)
(100.08 -0.824207 0.228511)
(100.186 -0.799162 0.232521)
(100.268 -0.775307 0.234899)
(100.331 -0.755288 0.236315)
(100.378 -0.739584 0.237204)
(100.414 -0.727922 0.237763)
(100.443 -0.718458 0.238196)
(100.467 -0.710189 0.238721)
(100.487 -0.703638 0.23944)
(100.503 -0.698986 0.240423)
(100.516 -0.69589 0.241697)
(100.527 -0.694098 0.24321)
(100.536 -0.69346 0.244871)
(100.544 -0.693873 0.246578)
(100.549 -0.695013 0.248262)
(100.554 -0.696724 0.249838)
(100.557 -0.698948 0.251214)
(100.561 -0.701668 0.252304)
(100.564 -0.704912 0.253039)
(100.568 -0.708475 0.253401)
(100.574 -0.712307 0.253401)
(100.584 -0.716447 0.253187)
(99.9939 0.0280811 0.00234117)
(99.9729 0.0568151 0.00492995)
(99.9333 0.0874316 0.00801644)
(99.8732 0.120766 0.0118942)
(99.7887 0.15656 0.0169209)
(99.6736 0.192513 0.0235613)
(99.5206 0.222353 0.0323824)
(99.3221 0.232505 0.044061)
(99.0756 0.19639 0.0593315)
(98.798 0.0656222 0.0788068)
(98.5485 -0.268724 0.102806)
(98.4386 -0.73085 0.130503)
(98.5633 -1.149 0.156382)
(98.8686 -1.38801 0.180658)
(99.2121 -1.48513 0.200586)
(99.5093 -1.51335 0.215813)
(99.7479 -1.4975 0.22698)
(99.9332 -1.46025 0.234784)
(100.074 -1.416 0.239925)
(100.18 -1.37086 0.242938)
(100.258 -1.32925 0.244043)
(100.314 -1.29086 0.244392)
(100.355 -1.26676 0.244523)
(100.388 -1.25524 0.244527)
(100.415 -1.24866 0.244461)
(100.438 -1.24365 0.244462)
(100.457 -1.24005 0.24468)
(100.471 -1.2379 0.245202)
(100.482 -1.23688 0.246039)
(100.491 -1.23672 0.247143)
(100.497 -1.23724 0.248423)
(100.501 -1.23831 0.249774)
(100.504 -1.2398 0.25109)
(100.505 -1.24164 0.25228)
(100.505 -1.24383 0.253254)
(100.504 -1.24643 0.253936)
(100.503 -1.24951 0.254259)
(100.502 -1.25305 0.254185)
(100.504 -1.25693 0.253757)
(100.507 -1.26075 0.253267)
(99.9945 0.0380495 0.00216393)
(99.9757 0.0773547 0.00455638)
(99.9398 0.120223 0.0074152)
(99.8839 0.168658 0.0110272)
(99.8027 0.223841 0.0157539)
(99.6868 0.285269 0.0220836)
(99.5218 0.348746 0.030666)
(99.2872 0.401783 0.0423323)
(98.9542 0.414814 0.0581128)
(98.4589 0.214268 0.0792378)
(98.2032 0.0349591 0.0858413)
(97.8597 -0.619424 0.101261)
(97.9267 -1.41938 0.114892)
(98.4049 -1.93094 0.12623)
(98.9036 -2.07904 0.136956)
(99.2927 -2.11035 0.14417)
(99.6039 -2.07294 0.148744)
(99.8354 -2.00077 0.151293)
(100.002 -1.92238 0.152618)
(100.125 -1.85151 0.153313)
(100.284 -1.9047 0.244398)
(100.324 -1.8295 0.244317)
(100.338 -1.77352 0.24391)
(100.35 -1.73789 0.243719)
(100.364 -1.7138 0.243887)
(100.375 -1.69807 0.244448)
(100.381 -1.68918 0.245411)
(100.382 -1.68544 0.246708)
(100.379 -1.68529 0.248189)
(100.372 -1.68768 0.249663)
(100.362 -1.69179 0.250942)
(100.348 -1.69704 0.251881)
(100.332 -1.70298 0.252391)
(100.312 -1.70934 0.252431)
(100.29 -1.71595 0.251999)
(100.266 -1.7228 0.251105)
(100.241 -1.73 0.249746)
(100.216 -1.73763 0.247927)
(100.192 -1.74559 0.245724)
(100.166 -1.75266 0.243593)
(99.9956 0.0462952 0.00192131)
(99.9803 0.0946168 0.00404291)
(99.9509 0.148582 0.00656831)
(99.904 0.211925 0.00975635)
(99.8332 0.288418 0.0139425)
(99.7272 0.38176 0.0195806)
(99.5665 0.49475 0.0273002)
(99.3186 0.626083 0.0379295)
(98.8789 0.762513 0.0525398)
(98.5368 0.769152 0.0578301)
(97.729 0.380591 0.0710854)
(96.9297 -0.682393 0.0879547)
(97.0275 -2.32813 0.101165)
(98.1532 -2.91903 0.108655)
(98.8676 -2.93628 0.116746)
(99.3282 -2.89233 0.119775)
(99.6873 -2.76902 0.119605)
(99.923 -2.62583 0.11851)
(100.073 -2.49513 0.118623)
(100.166 -2.39103 0.120512)
(100.232 -2.33108 0.122372)
(100.174 -2.45728 0.215203)
(100.066 -2.44052 0.216454)
(99.9638 -2.40783 0.215774)
(99.8746 -2.37153 0.214385)
(99.7891 -2.34093 0.212822)
(99.7047 -2.31725 0.211277)
(99.6213 -2.29899 0.209717)
(99.5387 -2.28478 0.207979)
(99.4565 -2.27366 0.205885)
(99.3744 -2.26486 0.203317)
(99.2927 -2.25775 0.200256)
(99.2117 -2.25193 0.196769)
(99.1316 -2.24716 0.192978)
(99.0531 -2.2434 0.189023)
(98.9767 -2.24074 0.185002)
(98.9032 -2.23941 0.180933)
(98.8337 -2.23987 0.176763)
(98.7707 -2.24304 0.172434)
(98.7081 -2.25099 0.168168)
(99.9971 0.0518804 0.00161669)
(99.987 0.106557 0.00339369)
(99.9673 0.168896 0.00548153)
(99.935 0.244482 0.00808283)
(99.8847 0.340163 0.0114581)
(99.8061 0.465253 0.0159499)
(99.6798 0.633403 0.0220189)
(99.4694 0.864909 0.0302327)
(99.0515 1.19126 0.0412468)
(98.6441 1.35228 0.0455395)
(97.6938 1.49283 0.0435942)
(95.5932 0.725073 0.0400231)
(94.4041 -3.41178 0.0535904)
(98.2332 -4.67116 0.0399424)
(98.7405 -3.78527 0.0405823)
(99.2879 -3.7034 0.0397545)
(99.6889 -3.47513 0.0744321)
(99.8553 -3.22515 0.118855)
(99.8764 -3.02799 0.153335)
(99.7991 -2.86957 0.166429)
(98.9096 -2.5575 0.113539)
(95.2708 -2.21346 0.120762)
(95.3442 -2.27741 0.13131)
(95.4357 -2.3048 0.136397)
(95.5126 -2.31654 0.138911)
(95.576 -2.32563 0.139791)
(95.6306 -2.33491 0.139113)
(95.6779 -2.3443 0.136665)
(95.7178 -2.35367 0.132297)
(95.751 -2.36298 0.126084)
(95.7789 -2.37213 0.118321)
(95.8033 -2.38101 0.109457)
(95.8261 -2.38956 0.0999869)
(95.8488 -2.39779 0.0903724)
(95.8727 -2.40574 0.080967)
(95.8988 -2.41353 0.0719727)
(95.9277 -2.42132 0.0634125)
(95.9596 -2.4295 0.0551409)
(95.994 -2.439 0.046889)
(96.0364 -2.45248 0.0384831)
(99.999 0.0538478 0.00130733)
(99.9954 0.111039 0.00267212)
(99.9881 0.17723 0.0042283)
(99.9757 0.259261 0.00610958)
(99.9555 0.36617 0.00845526)
(99.9228 0.511554 0.0114279)
(99.8692 0.71747 0.0151906)
(99.7802 1.02249 0.0198155)
(99.6083 1.49997 0.0250885)
(99.3413 1.89909 0.0271831)
(98.625 2.8332 0.0242167)
(95.4966 5.82991 0.0169471)
(77.1262 -4.24395 0.0348467)
(102.799 -10.2926 0.0218441)
(52.9454 -3.51214 -0.563069)
(73.6399 -3.85489 -0.247133)
(78.1262 -3.27082 -0.281146)
(81.386 -3.09002 -0.259553)
(83.9834 -3.03037 -0.225589)
(86.1859 -3.06038 -0.200559)
(91.4764 -3.28841 -0.196092)
(95.9545 -3.15747 -0.182714)
(96.0799 -3.03426 -0.183773)
(96.2205 -2.94663 -0.183203)
(96.3411 -2.88166 -0.182738)
(96.4496 -2.83035 -0.18242)
(96.5551 -2.78877 -0.181737)
(96.6593 -2.75486 -0.180171)
(96.7609 -2.72714 -0.177384)
(96.8586 -2.70445 -0.173285)
(96.9517 -2.68589 -0.168049)
(97.0401 -2.67069 -0.162063)
(97.1237 -2.6582 -0.155828)
(97.203 -2.64782 -0.149862)
(97.2786 -2.63902 -0.144624)
(97.3509 -2.63131 -0.140475)
(97.4206 -2.62419 -0.137694)
(97.4882 -2.61714 -0.136482)
(97.5537 -2.6093 -0.136997)
(97.6316 -2.59861 -0.139296)
(100.001 0.0518595 0.00100966)
(100.005 0.106918 0.0019496)
(100.011 0.171113 0.00294432)
(100.02 0.251442 0.00404512)
(100.035 0.357131 0.00526206)
(100.056 0.501852 0.00655327)
(100.09 0.707059 0.00775748)
(100.152 1.00854 0.00843655)
(100.297 1.46837 0.00758745)
(100.345 1.87794 0.00715202)
(100.621 2.85996 0.00283784)
(102.439 5.3757 -0.00643641)
(111.095 3.87042 -0.040774)
(109.054 -6.55302 0.0429843)
(102.828 -6.66943 -0.0108012)
(101.139 -4.88165 -0.0301135)
(100.68 -3.88363 -0.0449968)
(100.502 -3.33736 -0.0564383)
(100.415 -3.02003 -0.0612938)
(100.348 -2.83477 -0.0602988)
(100.257 -2.60955 -0.0984631)
(100.298 -2.23253 -0.21055)
(100.287 -2.12556 -0.212329)
(100.279 -2.06441 -0.212499)
(100.273 -2.0319 -0.212326)
(100.265 -2.01391 -0.212035)
(100.256 -2.00461 -0.211595)
(100.247 -2.00141 -0.211073)
(100.238 -2.00235 -0.210576)
(100.229 -2.0058 -0.210187)
(100.22 -2.01056 -0.209966)
(100.212 -2.01584 -0.209965)
(100.205 -2.02105 -0.210234)
(100.198 -2.02578 -0.210822)
(100.193 -2.02972 -0.21178)
(100.189 -2.03257 -0.213172)
(100.187 -2.03403 -0.215083)
(100.187 -2.03361 -0.217607)
(100.19 -2.03041 -0.220816)
(100.201 -2.02239 -0.22455)
(100.003 0.0454791 0.000562083)
(100.013 0.0937836 0.00112999)
(100.032 0.150148 0.00163517)
(100.062 0.220579 0.00201692)
(100.107 0.312637 0.00218185)
(100.175 0.436529 0.0019277)
(100.279 0.606458 0.000843983)
(100.446 0.841898 -0.00183072)
(100.763 1.16722 -0.00749256)
(100.987 1.40612 -0.00976815)
(101.838 1.86123 -0.017668)
(103.449 1.76564 -0.0317346)
(105.229 -0.229222 -0.046992)
(104.786 -2.80228 -0.0244503)
(102.996 -3.53129 -0.0423161)
(101.773 -3.32042 -0.0577234)
(101.137 -2.97002 -0.0670792)
(100.796 -2.67097 -0.0729852)
(100.6 -2.44448 -0.0771339)
(100.472 -2.27372 -0.080386)
(100.383 -2.13471 -0.0828491)
(100.295 -1.85602 -0.235665)
(100.269 -1.81515 -0.234109)
(100.253 -1.78531 -0.232298)
(100.244 -1.76511 -0.230966)
(100.238 -1.75078 -0.230259)
(100.232 -1.7401 -0.230109)
(100.227 -1.73231 -0.230422)
(100.221 -1.7269 -0.231081)
(100.216 -1.72329 -0.231943)
(100.21 -1.72091 -0.232873)
(100.205 -1.71925 -0.233772)
(100.2 -1.71785 -0.234581)
(100.195 -1.71632 -0.235288)
(100.192 -1.71424 -0.235926)
(100.19 -1.71126 -0.236568)
(100.19 -1.70704 -0.237321)
(100.193 -1.70126 -0.238315)
(100.2 -1.69367 -0.239695)
(100.218 -1.6845 -0.241633)
(100.004 0.0352013 0.000330404)
(100.02 0.0727359 0.000580781)
(100.049 0.116385 0.000636477)
(100.096 0.170498 0.000395669)
(100.164 0.240144 -0.000304284)
(100.264 0.33119 -0.00178095)
(100.41 0.449928 -0.0045741)
(100.629 0.600813 -0.00956553)
(100.963 0.780017 -0.0181725)
(101.449 0.863513 -0.0321771)
(102.088 0.765303 -0.0532417)
(102.763 0.236967 -0.0820451)
(103.122 -0.751021 -0.114101)
(102.876 -1.58454 -0.143359)
(102.233 -1.89592 -0.173431)
(101.6 -1.90463 -0.197976)
(101.15 -1.82004 -0.214748)
(100.86 -1.71469 -0.225428)
(100.668 -1.61308 -0.231998)
(100.535 -1.52159 -0.235726)
(100.445 -1.44085 -0.237381)
(100.387 -1.36776 -0.237373)
(100.349 -1.30886 -0.23667)
(100.323 -1.26161 -0.235824)
(100.303 -1.22517 -0.235047)
(100.288 -1.19784 -0.23445)
(100.276 -1.17757 -0.23412)
(100.265 -1.16282 -0.234115)
(100.255 -1.15238 -0.234447)
(100.245 -1.14524 -0.235098)
(100.237 -1.14049 -0.236026)
(100.229 -1.13737 -0.237179)
(100.222 -1.13528 -0.238499)
(100.216 -1.13366 -0.239932)
(100.211 -1.13204 -0.241445)
(100.208 -1.13008 -0.243021)
(100.207 -1.12745 -0.244671)
(100.208 -1.12392 -0.246435)
(100.213 -1.11942 -0.24838)
(100.223 -1.11422 -0.2506)
(100.005 0.0223116 0.000128491)
(100.025 0.0459688 0.000116562)
(100.061 0.0734567 -0.000152267)
(100.118 0.107127 -0.000812984)
(100.201 0.149889 -0.00210284)
(100.318 0.204176 -0.00437175)
(100.483 0.271464 -0.00818772)
(100.711 0.349253 -0.0143514)
(101.021 0.424594 -0.0239683)
(101.421 0.458178 -0.0382978)
(101.884 0.393835 -0.0584681)
(102.314 0.15683 -0.0849043)
(102.535 -0.263475 -0.115291)
(102.418 -0.693851 -0.145282)
(102.029 -0.940597 -0.173042)
(101.569 -1.00271 -0.195667)
(101.189 -0.975505 -0.212285)
(100.916 -0.921682 -0.223474)
(100.723 -0.864896 -0.230618)
(100.581 -0.811998 -0.234818)
(100.478 -0.765862 -0.23688)
(100.404 -0.729533 -0.237437)
(100.351 -0.703741 -0.237155)
(100.312 -0.686404 -0.236453)
(100.283 -0.675463 -0.235619)
(100.262 -0.669411 -0.234869)
(100.245 -0.666888 -0.234353)
(100.231 -0.666813 -0.234146)
(100.22 -0.668425 -0.234258)
(100.211 -0.671167 -0.234658)
(100.203 -0.674567 -0.235292)
(100.196 -0.678249 -0.236089)
(100.19 -0.681894 -0.236977)
(100.186 -0.685281 -0.237897)
(100.183 -0.687931 -0.238836)
(100.182 -0.689817 -0.239753)
(100.183 -0.690831 -0.240648)
(100.187 -0.690876 -0.241566)
(100.195 -0.689942 -0.242605)
(100.212 -0.688012 -0.243986)
(100.006 0.00763798 6.42045e-06)
(100.027 0.0156862 -0.000101135)
(100.067 0.0250726 -0.000572562)
(100.129 0.0364343 -0.00139537)
(100.218 0.0508133 -0.0029973)
(100.343 0.0687681 -0.00566159)
(100.513 0.0903047 -0.00999024)
(100.741 0.113938 -0.0166654)
(101.032 0.13454 -0.0267819)
(101.381 0.139457 -0.0410911)
(101.753 0.108733 -0.0603169)
(102.073 0.0217542 -0.0844724)
(102.237 -0.118002 -0.112119)
(102.169 -0.263168 -0.14047)
(101.893 -0.356148 -0.166198)
(101.531 -0.385816 -0.187672)
(101.195 -0.380702 -0.204102)
(100.933 -0.365222 -0.21545)
(100.739 -0.348551 -0.222815)
(100.594 -0.33298 -0.227202)
(100.487 -0.31929 -0.229463)
(100.408 -0.308036 -0.230254)
(100.351 -0.298854 -0.230126)
(100.31 -0.291102 -0.229453)
(100.281 -0.284152 -0.228681)
(100.259 -0.277775 -0.228027)
(100.242 -0.271852 -0.227606)
(100.228 -0.266303 -0.227483)
(100.217 -0.261095 -0.227676)
(100.207 -0.25622 -0.228166)
(100.199 -0.251659 -0.228908)
(100.192 -0.247384 -0.229837)
(100.186 -0.243371 -0.230872)
(100.181 -0.239627 -0.231901)
(100.178 -0.235903 -0.233077)
(100.176 -0.232281 -0.234238)
(100.177 -0.228767 -0.235343)
(100.18 -0.22536 -0.236425)
(100.186 -0.22218 -0.237576)
(100.198 -0.219753 -0.239027)
(99.9935 0.00571749 0.00733801)
(99.9715 0.0114991 0.0155044)
(99.9308 0.0174767 0.0250277)
(99.8706 0.0236935 0.036918)
(99.7894 0.0298899 0.0521725)
(99.6854 0.0352926 0.0719746)
(99.5577 0.0382336 0.0973883)
(99.4089 0.0357815 0.129852)
(99.2479 0.0232832 0.170718)
(99.0938 -0.00556107 0.220383)
(98.9787 -0.0562642 0.278149)
(98.9423 -0.127252 0.341616)
(99.0096 -0.199296 0.406999)
(99.1709 -0.253584 0.468962)
(99.3833 -0.280247 0.52297)
(99.5993 -0.288755 0.567409)
(99.7926 -0.287663 0.602023)
(99.956 -0.281511 0.627847)
(100.09 -0.273077 0.646176)
(100.198 -0.2644 0.6586)
(100.282 -0.256411 0.666335)
(100.347 -0.24943 0.670992)
(100.397 -0.243534 0.674116)
(100.434 -0.239066 0.676291)
(100.464 -0.235943 0.678034)
(100.487 -0.233903 0.679864)
(100.505 -0.232832 0.68171)
(100.52 -0.232581 0.683737)
(100.531 -0.232923 0.686184)
(100.539 -0.233666 0.689003)
(100.546 -0.234673 0.692039)
(100.551 -0.235854 0.695086)
(100.555 -0.237121 0.698177)
(100.559 -0.238419 0.701166)
(100.563 -0.239719 0.70384)
(100.566 -0.24103 0.705973)
(100.571 -0.242357 0.707302)
(100.577 -0.243689 0.707815)
(100.585 -0.245058 0.707355)
(100.6 -0.246607 0.705763)
(99.9937 0.0169937 0.00718822)
(99.9722 0.0342411 0.0151208)
(99.9322 0.0522792 0.0245198)
(99.8724 0.0713488 0.036279)
(99.7907 0.0908763 0.051409)
(99.6836 0.108847 0.0711465)
(99.5483 0.120664 0.0968866)
(99.3843 0.117703 0.13026)
(99.1974 0.0855416 0.172833)
(99.0057 0.0036099 0.225538)
(98.8483 -0.145009 0.288057)
(98.7915 -0.35314 0.357567)
(98.8777 -0.572752 0.429621)
(99.0835 -0.732441 0.497135)
(99.339 -0.8115 0.554256)
(99.5819 -0.840528 0.599734)
(99.7888 -0.840855 0.634312)
(99.9582 -0.825506 0.659508)
(100.093 -0.803399 0.676993)
(100.199 -0.779653 0.688393)
(100.28 -0.757209 0.695214)
(100.342 -0.738259 0.69952)
(100.388 -0.723367 0.702615)
(100.423 -0.712234 0.70498)
(100.45 -0.703213 0.706941)
(100.472 -0.695493 0.708881)
(100.49 -0.689319 0.711044)
(100.504 -0.684858 0.713575)
(100.515 -0.681903 0.716517)
(100.525 -0.680215 0.719785)
(100.532 -0.679625 0.723242)
(100.538 -0.679993 0.726744)
(100.543 -0.681145 0.730187)
(100.546 -0.68297 0.733421)
(100.55 -0.685397 0.736263)
(100.553 -0.688369 0.738519)
(100.556 -0.691867 0.739989)
(100.561 -0.695809 0.740527)
(100.568 -0.70008 0.739988)
(100.58 -0.704504 0.738319)
(99.9941 0.0277922 0.00685397)
(99.9737 0.056203 0.014419)
(99.9354 0.0864722 0.0234408)
(99.8771 0.119412 0.0347953)
(99.7954 0.154779 0.0495431)
(99.6841 0.19036 0.069055)
(99.5361 0.220072 0.0950419)
(99.344 0.230631 0.129581)
(99.1051 0.195939 0.174946)
(98.8359 0.0684088 0.233092)
(98.5945 -0.258524 0.304599)
(98.4872 -0.710769 0.386371)
(98.6075 -1.12018 0.469049)
(98.9044 -1.35571 0.544386)
(99.2387 -1.45249 0.60502)
(99.5288 -1.48178 0.651108)
(99.7629 -1.4676 0.684717)
(99.9454 -1.43218 0.707959)
(100.084 -1.38954 0.722956)
(100.187 -1.34586 0.731515)
(100.263 -1.30611 0.734663)
(100.318 -1.27019 0.736156)
(100.358 -1.24839 0.73801)
(100.389 -1.23861 0.740149)
(100.416 -1.23319 0.742182)
(100.437 -1.2289 0.744166)
(100.454 -1.22558 0.746326)
(100.468 -1.22335 0.748763)
(100.478 -1.22201 0.751456)
(100.486 -1.22145 0.754329)
(100.492 -1.22159 0.75729)
(100.496 -1.22243 0.760245)
(100.498 -1.22396 0.763099)
(100.499 -1.22613 0.765734)
(100.498 -1.22896 0.768004)
(100.496 -1.23248 0.769717)
(100.494 -1.23675 0.770654)
(100.493 -1.24175 0.770593)
(100.494 -1.24729 0.769399)
(100.498 -1.25266 0.767259)
(99.9947 0.0376322 0.00633183)
(99.9765 0.0764749 0.0133246)
(99.9418 0.11879 0.0216884)
(99.8878 0.166548 0.0322808)
(99.8093 0.220912 0.0461858)
(99.6971 0.281392 0.0648643)
(99.5375 0.343859 0.0903014)
(99.3101 0.395998 0.125101)
(98.9866 0.408569 0.172565)
(98.5038 0.210941 0.236633)
(98.2491 0.0285991 0.268917)
(97.9123 -0.628652 0.34404)
(97.98 -1.4247 0.423621)
(98.4515 -1.94142 0.496483)
(98.9383 -2.09598 0.552425)
(99.3188 -2.13418 0.592836)
(99.6241 -2.10211 0.621412)
(99.8518 -2.03361 0.640213)
(100.016 -1.95669 0.651629)
(100.136 -1.88531 0.657765)
(100.276 -1.92038 0.768721)
(100.313 -1.84879 0.765362)
(100.326 -1.79977 0.763194)
(100.337 -1.77205 0.76324)
(100.35 -1.75537 0.765004)
(100.361 -1.74575 0.767977)
(100.367 -1.74134 0.771827)
(100.368 -1.7404 0.776244)
(100.364 -1.74162 0.780916)
(100.357 -1.7443 0.785575)
(100.345 -1.74805 0.790024)
(100.329 -1.7527 0.794108)
(100.309 -1.7581 0.797702)
(100.285 -1.76419 0.800676)
(100.259 -1.77095 0.802878)
(100.23 -1.77842 0.804106)
(100.2 -1.78671 0.804094)
(100.169 -1.79596 0.802528)
(100.141 -1.80613 0.799147)
(100.11 -1.81597 0.79407)
(99.9958 0.0457515 0.00561584)
(99.9811 0.0934637 0.0118193)
(99.9527 0.146666 0.0192197)
(99.9074 0.209013 0.0285924)
(99.8392 0.284181 0.0409516)
(99.7367 0.375746 0.0576915)
(99.581 0.486338 0.0807815)
(99.34 0.614431 0.112917)
(98.9104 0.74642 0.157681)
(98.5713 0.747735 0.183138)
(97.7749 0.357279 0.247832)
(96.9859 -0.702772 0.331527)
(97.0839 -2.33581 0.425411)
(98.1906 -2.93938 0.501932)
(98.8853 -2.97703 0.545212)
(99.3361 -2.95005 0.571395)
(99.6891 -2.84196 0.587953)
(99.9226 -2.70974 0.597312)
(100.072 -2.58361 0.602767)
(100.163 -2.4788 0.606277)
(100.221 -2.41924 0.608787)
(100.112 -2.55853 0.691196)
(99.9852 -2.54661 0.676062)
(99.8687 -2.52315 0.662445)
(99.7678 -2.49652 0.652057)
(99.6735 -2.47397 0.644989)
(99.5832 -2.45594 0.640626)
(99.4964 -2.44106 0.638274)
(99.4122 -2.42852 0.637335)
(99.3294 -2.41811 0.637333)
(99.2473 -2.40974 0.637888)
(99.1653 -2.40335 0.638686)
(99.0833 -2.39886 0.639439)
(99.0016 -2.39617 0.639864)
(98.9207 -2.39523 0.63966)
(98.8411 -2.39601 0.638481)
(98.7639 -2.39865 0.635872)
(98.6906 -2.40356 0.631276)
(98.6239 -2.41182 0.624095)
(98.5593 -2.42591 0.614157)
(99.9972 0.0512695 0.00469262)
(99.9876 0.105195 0.0098926)
(99.9688 0.166574 0.0160256)
(99.9379 0.240866 0.0237006)
(99.8895 0.33473 0.0337196)
(99.8136 0.457208 0.0471691)
(99.6911 0.621511 0.0655459)
(99.4857 0.847236 0.0908638)
(99.0745 1.16467 0.125686)
(98.6693 1.3214 0.146428)
(97.7244 1.45487 0.17481)
(95.6376 0.679616 0.228657)
(94.4561 -3.44866 0.325073)
(98.2707 -4.71042 0.394119)
(98.7584 -3.87688 0.341688)
(99.2995 -3.83691 0.344853)
(99.6822 -3.64939 0.344454)
(99.8347 -3.43009 0.34475)
(99.8458 -3.23299 0.349481)
(99.765 -3.04279 0.35116)
(98.6096 -2.77608 0.405389)
(95.0834 -2.49585 0.283567)
(95.152 -2.5708 0.282658)
(95.239 -2.61457 0.279724)
(95.3139 -2.64334 0.278359)
(95.3795 -2.6663 0.279884)
(95.442 -2.68446 0.283953)
(95.5031 -2.69763 0.289702)
(95.562 -2.70652 0.296234)
(95.6183 -2.71236 0.302734)
(95.672 -2.71633 0.308493)
(95.7235 -2.71935 0.312974)
(95.7733 -2.72209 0.315744)
(95.8221 -2.72499 0.316547)
(95.8704 -2.72826 0.315241)
(95.9188 -2.73203 0.311714)
(95.9678 -2.73641 0.305764)
(96.0174 -2.74174 0.296964)
(96.0673 -2.74905 0.284451)
(96.128 -2.76139 0.266484)
(99.9991 0.0532265 0.00381441)
(99.9958 0.109588 0.0078085)
(99.9891 0.174692 0.0123869)
(99.9776 0.255232 0.0179496)
(99.9586 0.359999 0.0249462)
(99.9274 0.502219 0.0339241)
(99.8756 0.703338 0.0455163)
(99.7885 1.00098 0.0602323)
(99.6172 1.4669 0.0779325)
(99.3503 1.85946 0.0881428)
(98.6332 2.77987 0.0975312)
(95.5019 5.73888 0.111357)
(77.2881 -4.46528 0.243239)
(52.0858 -3.71217 -1.89552)
(73.0358 -3.90534 -0.201185)
(78.1291 -3.42609 -0.258748)
(81.6772 -3.29791 -0.35674)
(84.1648 -3.21567 -0.381219)
(85.993 -3.16009 -0.336902)
(92.5741 -3.63961 -0.375989)
(96.363 -3.38223 -0.51204)
(96.5316 -3.26582 -0.507993)
(96.7072 -3.18412 -0.501728)
(96.8503 -3.12488 -0.494651)
(96.9674 -3.07839 -0.486326)
(97.0682 -3.04013 -0.476603)
(97.1571 -3.00795 -0.465985)
(97.2367 -2.98062 -0.455206)
(97.3096 -2.95738 -0.44496)
(97.3783 -2.93766 -0.435798)
(97.445 -2.92099 -0.428096)
(97.5111 -2.90688 -0.422043)
(97.5774 -2.89478 -0.417692)
(97.6442 -2.88417 -0.415013)
(97.7113 -2.87453 -0.413982)
(97.7783 -2.86533 -0.414729)
(97.8448 -2.85597 -0.417601)
(97.9098 -2.8455 -0.423325)
(97.9872 -2.83175 -0.432944)
(100.001 0.0510978 0.00278987)
(100.005 0.105369 0.00555825)
(100.011 0.16852 0.00852488)
(100.021 0.247363 0.0118241)
(100.036 0.35089 0.0155134)
(100.057 0.492397 0.0195303)
(100.091 0.69279 0.0234958)
(100.152 0.987052 0.0262919)
(100.291 1.43622 0.0251434)
(100.337 1.83968 0.0229366)
(100.605 2.80984 0.0101324)
(102.4 5.30803 -0.0309082)
(110.941 3.96638 -0.00786709)
(108.987 -6.5442 -0.109903)
(102.78 -6.738 -0.228349)
(101.141 -4.96303 -0.295621)
(100.699 -3.99078 -0.332981)
(100.53 -3.45294 -0.359453)
(100.449 -3.12764 -0.379633)
(100.388 -2.92494 -0.395919)
(100.302 -2.72884 -0.507805)
(100.332 -2.34308 -0.68071)
(100.319 -2.24231 -0.679723)
(100.305 -2.18536 -0.675505)
(100.291 -2.15394 -0.671298)
(100.274 -2.13416 -0.667393)
(100.258 -2.12098 -0.663417)
(100.242 -2.11283 -0.659395)
(100.228 -2.10868 -0.655597)
(100.216 -2.10767 -0.652322)
(100.206 -2.10906 -0.649846)
(100.198 -2.1122 -0.648405)
(100.191 -2.11646 -0.648164)
(100.187 -2.12119 -0.649187)
(100.184 -2.12578 -0.651534)
(100.183 -2.1296 -0.655255)
(100.184 -2.13205 -0.660476)
(100.187 -2.13236 -0.667417)
(100.192 -2.12935 -0.676368)
(100.207 -2.12086 -0.687241)
(100.003 0.0447898 0.00167641)
(100.013 0.0924083 0.00332484)
(100.032 0.147837 0.00481066)
(100.062 0.216947 0.00598346)
(100.107 0.307105 0.00656696)
(100.173 0.428229 0.00598627)
(100.275 0.594171 0.00309886)
(100.438 0.823946 -0.00424753)
(100.747 1.14141 -0.0200714)
(100.967 1.37615 -0.0312417)
(101.802 1.82382 -0.0700645)
(103.393 1.72403 -0.142481)
(105.152 -0.256291 -0.242664)
(104.71 -2.81347 -0.349845)
(102.951 -3.55613 -0.439502)
(101.749 -3.35034 -0.502784)
(101.126 -3.00667 -0.543436)
(100.793 -2.71264 -0.568036)
(100.602 -2.48848 -0.582487)
(100.478 -2.31834 -0.590855)
(100.393 -2.17914 -0.594993)
(100.305 -1.87597 -0.745535)
(100.279 -1.83651 -0.740732)
(100.262 -1.80883 -0.736079)
(100.251 -1.79038 -0.732299)
(100.243 -1.77719 -0.729155)
(100.236 -1.76716 -0.726334)
(100.229 -1.75956 -0.723729)
(100.223 -1.75391 -0.721351)
(100.218 -1.74967 -0.71925)
(100.212 -1.74633 -0.717495)
(100.207 -1.74347 -0.716161)
(100.203 -1.74069 -0.715314)
(100.199 -1.73764 -0.714987)
(100.196 -1.73393 -0.715248)
(100.195 -1.72922 -0.716183)
(100.195 -1.72314 -0.717936)
(100.197 -1.7153 -0.720729)
(100.203 -1.70545 -0.724834)
(100.219 -1.69406 -0.730454)
(100.004 0.0347603 0.000911235)
(100.02 0.0717107 0.00160684)
(100.049 0.114594 0.00180256)
(100.095 0.167702 0.00119274)
(100.162 0.235894 -0.000745704)
(100.26 0.324921 -0.00492247)
(100.403 0.440914 -0.0128719)
(100.616 0.588202 -0.0271278)
(100.942 0.762948 -0.051778)
(101.414 0.844986 -0.0924944)
(102.038 0.749366 -0.154956)
(102.7 0.231686 -0.242959)
(103.052 -0.734459 -0.348382)
(102.81 -1.55555 -0.460765)
(102.182 -1.86504 -0.556764)
(101.564 -1.87414 -0.62689)
(101.126 -1.79128 -0.673274)
(100.843 -1.68827 -0.702094)
(100.656 -1.58867 -0.71905)
(100.526 -1.49867 -0.727868)
(100.438 -1.41937 -0.730796)
(100.381 -1.34797 -0.729152)
(100.344 -1.29112 -0.726776)
(100.319 -1.24557 -0.724597)
(100.3 -1.21005 -0.722436)
(100.287 -1.18295 -0.720328)
(100.276 -1.16245 -0.718495)
(100.266 -1.14719 -0.717118)
(100.257 -1.13612 -0.716294)
(100.249 -1.12834 -0.716059)
(100.242 -1.12308 -0.716417)
(100.234 -1.11961 -0.717336)
(100.228 -1.11733 -0.71877)
(100.222 -1.11569 -0.720644)
(100.217 -1.11417 -0.722922)
(100.213 -1.11233 -0.725586)
(100.211 -1.10977 -0.728676)
(100.212 -1.10615 -0.732288)
(100.215 -1.10136 -0.736556)
(100.222 -1.0957 -0.741493)
(100.005 0.0219863 0.000317611)
(100.025 0.0452987 0.000295757)
(100.061 0.0722933 -0.000410519)
(100.117 0.105405 -0.00222763)
(100.198 0.147262 -0.00587132)
(100.313 0.200383 -0.0123572)
(100.474 0.26621 -0.0233012)
(100.696 0.342367 -0.0410725)
(100.998 0.416115 -0.0689249)
(101.388 0.44928 -0.110785)
(101.841 0.386619 -0.170359)
(102.26 0.154409 -0.249036)
(102.477 -0.259149 -0.342008)
(102.365 -0.681778 -0.437633)
(101.983 -0.922174 -0.522959)
(101.535 -0.981822 -0.589159)
(101.164 -0.954462 -0.635788)
(100.897 -0.901508 -0.666727)
(100.706 -0.845724 -0.686243)
(100.567 -0.793699 -0.697495)
(100.465 -0.748377 -0.702757)
(100.391 -0.713004 -0.703895)
(100.339 -0.687904 -0.703035)
(100.301 -0.670834 -0.701205)
(100.274 -0.659983 -0.698876)
(100.255 -0.653951 -0.696456)
(100.241 -0.651423 -0.694305)
(100.23 -0.651325 -0.692639)
(100.222 -0.65291 -0.691547)
(100.215 -0.655622 -0.691034)
(100.209 -0.658982 -0.691055)
(100.204 -0.662601 -0.691531)
(100.2 -0.666131 -0.692369)
(100.196 -0.669292 -0.693475)
(100.194 -0.67179 -0.694823)
(100.192 -0.673445 -0.696349)
(100.192 -0.674095 -0.698056)
(100.194 -0.673644 -0.700038)
(100.2 -0.672096 -0.702466)
(100.213 -0.669586 -0.705602)
(100.006 0.00751497 2.61955e-05)
(100.027 0.0154694 -0.00033734)
(100.066 0.0246505 -0.00156103)
(100.127 0.0358434 -0.00394546)
(100.215 0.0498689 -0.00847641)
(100.337 0.067407 -0.0160479)
(100.504 0.0884739 -0.0282803)
(100.726 0.111637 -0.0473845)
(101.01 0.131763 -0.0763362)
(101.35 0.136701 -0.117906)
(101.714 0.106922 -0.174492)
(102.026 0.0222796 -0.24625)
(102.187 -0.113988 -0.329094)
(102.121 -0.255777 -0.41432)
(101.852 -0.345966 -0.491894)
(101.497 -0.374633 -0.554936)
(101.167 -0.369485 -0.601292)
(100.91 -0.354211 -0.632964)
(100.718 -0.337784 -0.653408)
(100.574 -0.322404 -0.665523)
(100.467 -0.308903 -0.671623)
(100.389 -0.297862 -0.673583)
(100.334 -0.288805 -0.673066)
(100.296 -0.281052 -0.671272)
(100.269 -0.274134 -0.669121)
(100.25 -0.267828 -0.667069)
(100.237 -0.261983 -0.665395)
(100.227 -0.256507 -0.664287)
(100.22 -0.251379 -0.663838)
(100.213 -0.246599 -0.664053)
(100.208 -0.242158 -0.664873)
(100.203 -0.238032 -0.666198)
(100.198 -0.234187 -0.667893)
(100.194 -0.230573 -0.66979)
(100.191 -0.227104 -0.672028)
(100.188 -0.223742 -0.674379)
(100.187 -0.22045 -0.67678)
(100.188 -0.217216 -0.679298)
(100.192 -0.214152 -0.682076)
(100.199 -0.211793 -0.685334)
(99.9939 0.00561112 0.011713)
(99.973 0.0112742 0.0245714)
(99.9346 0.0171464 0.0397714)
(99.8778 0.0232595 0.058717)
(99.8016 0.0293748 0.0829756)
(99.7041 0.0347822 0.11444)
(99.5847 0.0379487 0.155173)
(99.4457 0.0361083 0.207503)
(99.2956 0.0248517 0.27357)
(99.1521 -0.00174317 0.354427)
(99.0455 -0.0490923 0.44926)
(99.0128 -0.115205 0.554055)
(99.0774 -0.182648 0.661367)
(99.2307 -0.233218 0.762819)
(99.4324 -0.257756 0.851055)
(99.6382 -0.265398 0.923398)
(99.8233 -0.264167 0.980062)
(99.9808 -0.258294 1.02277)
(100.111 -0.250323 1.05368)
(100.216 -0.242204 1.07512)
(100.299 -0.234684 1.08933)
(100.363 -0.22779 1.09868)
(100.411 -0.221649 1.10533)
(100.447 -0.216797 1.1106)
(100.474 -0.213308 1.11513)
(100.495 -0.210911 1.11921)
(100.51 -0.209414 1.12307)
(100.52 -0.208682 1.12696)
(100.528 -0.208548 1.13109)
(100.533 -0.208844 1.13553)
(100.537 -0.209432 1.14024)
(100.54 -0.210214 1.14511)
(100.542 -0.211109 1.15005)
(100.545 -0.21206 1.15487)
(100.548 -0.213024 1.15933)
(100.551 -0.214004 1.16314)
(100.556 -0.215013 1.16602)
(100.562 -0.216062 1.16769)
(100.571 -0.217193 1.16777)
(100.585 -0.218534 1.16578)
(99.994 0.0166667 0.0114529)
(99.9737 0.033559 0.0240334)
(99.936 0.05124 0.0389647)
(99.8797 0.0699407 0.0576547)
(99.803 0.0891457 0.0817341)
(99.7028 0.107004 0.113248)
(99.5764 0.119245 0.154589)
(99.4233 0.117727 0.20855)
(99.2491 0.0887574 0.277939)