/*--------------------------------*- C++ -*----------------------------------*\
| =========                 |                                                 |
| \\      /  F ield         | OpenFOAM: The Open Source CFD Toolbox           |
|  \\    /   O peration     | Version:  2306                                  |
|   \\  /    A nd           | Website:  www.openfoam.com                      |
|    \\/     M anipulation  |                                                 |
\*---------------------------------------------------------------------------*/
FoamFile
{
    version     2.0;
    format      ascii;
    arch        "LSB;label=32;scalar=64";
    class       volVectorField;
    location    "1.75";
    object      Force;
}
// * * * * * * * * * * * * * * * * * * * * * * * * * * * * * * * * * * * * * //

dimensions      [1 1 -2 0 0 0 0];

internalField   uniform (0 0 0);

boundaryField
{
    walls
    {
        type            calculated;
        value           uniform (0 0 0);
    }
    inlet
    {
        type            calculated;
        value           uniform (0 0 0);
    }
    outlet
    {
        type            calculated;
        value           uniform (0 0 0);
    }
    NASA
    {
        type            calculated;
        value           nonuniform List<vector> 
14179
(
(-0.0142943 -0.131484 1.11706e-05)
(-0.0127371 -0.105323 8.14456e-06)
(-0.0647059 -0.523344 0.00109663)
(-0.101122 -0.813289 0.00439505)
(-0.0643193 -0.520697 0.00056585)
(-0.109984 -0.884474 0.00484097)
(0.230528 1.00059 -0.000556523)
(0.0926091 0.464774 -6.52643e-05)
(0.628932 3.08464 0.00295733)
(0.0983332 0.493531 -6.91227e-05)
(0.000776487 0.000347115 -5.14871e-07)
(-0.0178998 -0.146549 0.000772241)
(0.130447 0.651536 -0.00324675)
(-0.0356522 -0.324138 0.00182675)
(0.0618562 0.308568 -0.00150237)
(1.37549 0.927885 0.00283455)
(1.39117 0.922113 -0.000505211)
(0.0235947 0.132579 -7.66524e-05)
(0.161771 0.959683 -0.000140611)
(1.26293 0.837112 -0.00485461)
(-0.01686 -0.235956 1.51129e-07)
(-0.0209394 -0.194738 -0.000100208)
(-0.0192882 -0.267826 -0.000205813)
(-0.00840841 -0.061289 4.81429e-06)
(-0.0129032 -0.106749 3.04034e-05)
(-0.00908822 -0.0662464 2.41432e-05)
(-0.0129092 -0.106315 0.000546805)
(-0.0151791 -0.108752 0.000577847)
(-0.013263 -0.121131 0.000621667)
(-0.0155192 -0.21299 0.00414876)
(0.0471708 0.206012 -3.89071e-06)
(0.0531675 0.250723 -8.5997e-06)
(0.0571758 0.269618 -0.000111812)
(0.0465461 0.202746 -2.6192e-05)
(0.0670455 0.245783 1.80482e-06)
(0.0652188 0.239229 -2.64701e-05)
(0.0337763 0.122456 2.37156e-06)
(0.0349685 0.126858 -7.69006e-06)
(-0.00221065 -0.010509 0.000170009)
(-0.0128751 -0.0626592 0.000796695)
(0.169598 0.619359 -0.00255304)
(0.0991015 0.357305 -0.0010599)
(0.0975457 0.489621 -0.000111643)
(-0.00574619 -0.0404554 4.52053e-06)
(-0.00523915 -0.0368732 2.73544e-06)
(0.153933 0.773179 -0.000190154)
(-0.00988285 -0.0684033 0.000396156)
(0.0969045 0.483812 -0.00164507)
(0.0900694 0.450126 -0.00166582)
(0.10828 0.442431 -0.000401887)
(0.0848664 0.315493 -2.70365e-05)
(0.0844638 0.314009 -7.46751e-05)
(-0.0673481 1.64265 -0.000263734)
(1.38635 0.9218 -0.000774334)
(-0.0621979 1.52855 8.18231e-05)
(-0.00296301 1.44885 -0.000256654)
(0.074883 1.13181 4.70429e-06)
(0.0684063 1.03155 -0.000267902)
(-0.00277838 1.37761 -2.09664e-05)
(0.0952617 0.374242 -2.89742e-05)
(0.160076 0.949272 -0.00024936)
(0.00732187 0.0266106 -1.85873e-05)
(-0.0228664 0.568095 -0.00198032)
(0.912807 0.623044 0.0743623)
(-0.00074111 0.533492 -0.00215286)
(0.0269252 0.408373 -0.00153238)
(0.127126 0.744056 0.00519555)
(-0.0144329 -0.144438 1.45664e-05)
(-0.0142387 -0.131057 2.19843e-05)
(-0.0994579 -0.800018 0.00431706)
(-0.0111998 -0.0888594 7.60549e-06)
(-0.0127172 -0.105168 1.73273e-05)
(1.31062 0.867708 -0.00567472)
(1.26247 0.83609 -0.00525655)
(0.34596 2.05145 -0.0120168)
(0.26062 1.53977 -0.0083496)
(-0.111459 -0.89756 0.00343969)
(-0.0567992 -0.353486 0.00197487)
(-0.055925 -0.350476 0.00201359)
(-0.0429799 -0.252113 0.00143208)
(0.156775 0.676071 -0.00384743)
(0.176035 0.761082 -0.00424369)
(0.762821 1.30972 -4.91302e-05)
(0.763259 1.30853 -0.000315823)
(0.0932731 0.468006 -7.8453e-05)
(0.0869156 0.417468 -4.75925e-05)
(-2.78469e-05 -0.00165634 -8.58496e-07)
(0.00171474 0.00893572 -5.79307e-07)
(0.00175336 0.00915795 -2.91916e-06)
(-2.24249e-05 -0.00161597 1.9613e-07)
(0.0998295 0.501052 -6.76638e-05)
(0.0955248 0.49254 -5.62693e-05)
(-0.0201034 -0.164311 0.000931114)
(-0.0135601 -0.0972229 0.00057327)
(-0.02042 -0.145808 0.000824059)
(-0.0123913 -0.085485 0.000535596)
(-0.0181987 -0.124833 0.000661825)
(0.0853236 0.425734 -0.00239692)
(-0.0200737 -0.182636 0.00101765)
(-0.0247438 -0.339713 0.00200346)
(-0.0208514 -0.292804 0.00102925)
(0.0800254 0.399676 -0.00222207)
(1.37283 0.922027 -0.00265418)
(0.0975196 0.574828 -0.000103896)
(0.105929 0.592271 -4.39831e-05)
(0.106879 0.597428 -0.000104521)
(0.184789 1.28589 -0.000212206)
(0.101826 0.603887 -0.000109732)
(0.159158 0.944044 -0.000166326)
(0.0188866 0.0178264 1.67381e-05)
(0.346197 -0.127578 0.00347018)
(0.361796 -0.143443 0.00169841)
(0.0168205 0.0161695 -4.34579e-05)
(-0.00687348 -0.0294437 0.000235354)
(0.0212496 0.078324 -0.00038305)
(0.00194962 0.0065668 3.27838e-05)
(0.0212657 0.0855815 -0.000314497)
(-0.00970392 -0.0432921 0.000259064)
(-0.00202712 -0.0112549 0.00014267)
(0.00403548 0.0167901 -3.82276e-05)
(-0.0181825 -0.0879146 0.000491725)
(-0.00107706 0.731207 -0.00379297)
(0.0406565 0.607341 -0.0032492)
(-0.0015722 0.98047 -0.00515997)
(0.0316964 0.479778 -0.0028765)
(-0.0346856 0.866956 -0.00468454)
(1.09191 0.73451 -0.00452864)
(-0.0470118 1.16246 -0.00606835)
(0.109241 0.646532 -0.00450163)
(0.155845 0.610305 -0.00360983)
(0.117132 0.45807 -0.00248155)
(0.108004 0.394091 -0.00211678)
(0.152702 0.557908 -0.00299398)
(0.0629481 0.227116 -0.00121811)
(0.0857482 0.309917 -0.00173576)
(-0.0130241 -0.146772 6.49488e-06)
(-0.0167454 -0.234028 3.25484e-05)
(-0.010244 -0.0789502 7.06764e-06)
(-0.0082633 -0.0602366 8.9815e-06)
(0.000674043 0.00210239 0.532471)
(-0.0129584 -0.101947 0.000531678)
(0.000643541 0.00200805 0.50638)
(-0.0144192 -0.10985 0.000584086)
(0.000967353 0.00242335 0.575951)
(-0.0129834 -0.129612 0.000729852)
(0.00122383 0.00286718 0.577081)
(-0.0120876 -0.139238 0.00157047)
(0.0529611 0.249735 -5.23747e-05)
(0.0394606 0.179477 -1.66267e-05)
(0.0397795 0.18095 -3.88588e-05)
(0.0467663 0.20368 -3.25002e-05)
(0.0460465 0.202812 -1.87335e-05)
(0.0462843 0.203883 -4.0187e-05)
(0.0669961 0.245633 -3.93306e-07)
(0.0243158 0.120948 -2.39735e-05)
(0.0217699 0.110464 -2.21156e-05)
(0.034668 0.125715 5.63077e-06)
(0.0290261 0.102049 2.20863e-06)
(-0.00658528 -0.0301127 0.000307405)
(-0.0055272 -0.0263108 0.000324024)
(0.000495103 0.00163703 0.319268)
(0.000492054 0.00158172 0.312339)
(0.000480357 0.00155046 0.308363)
(0.000338866 0.00154723 0.354109)
(0.0934201 0.318333 -0.000690662)
(0.159651 0.55823 0.00198965)
(3.31822e-06 0.00156315 0.333671)
(0.000402749 0.000891604 0.302897)
(0.000122768 0.000542229 0.106606)
(0.0817263 0.286871 -0.000827887)
(0.285534 0.663356 -1.20361e-05)
(0.168363 0.593582 4.4328e-05)
(0.166645 0.587573 -6.45161e-05)
(0.0799099 0.373138 -3.42833e-05)
(0.0804561 0.375712 -6.083e-05)
(0.136885 0.653729 -6.57242e-05)
(0.0771099 0.343318 -5.16473e-05)
(0.0817319 0.370901 -2.96639e-05)
(0.0822614 0.373245 -5.9182e-05)
(0.0776285 0.345698 -2.0788e-05)
(-0.00437734 -0.0309989 3.72592e-06)
(-0.00567654 -0.0399689 4.85016e-06)
(0.153868 0.814828 -7.02013e-05)
(0.263435 0.454388 0.00951992)
(0.00126839 0.00512496 0.858935)
(0.00035017 0.00273409 0.410295)
(0.0482144 0.140246 -0.000356697)
(-0.0118391 -0.0738387 0.000472088)
(-0.0118401 -0.074742 0.000619194)
(0.00111966 0.00323312 0.676758)
(0.00040392 0.000959065 0.309618)
(0.0960151 0.492812 -0.00069534)
(0.000619284 0.00104977 0.37348)
(0.139694 0.734243 0.00274171)
(0.000636657 0.00188664 0.346161)
(0.000485061 0.00164604 0.327712)
(-0.000233346 0.00140881 0.350711)
(7.08755e-05 0.000682142 0.112036)
(0.0803318 0.383693 -0.00145437)
(0.102958 0.478323 -0.000749443)
(0.000510267 0.000662655 0.205079)
(9.8793e-05 0.000764606 0.107286)
(0.169329 0.711629 -0.000670592)
(0.0848793 0.315542 -4.27132e-05)
(0.0808714 0.309586 -3.30213e-05)
(0.0964795 0.393326 -6.38021e-05)
(0.0677042 0.272702 -1.89114e-05)
(-0.882895 2.82249 -0.0216451)
(-0.0637492 1.56136 -9.32806e-05)
(-0.19122 1.78718 0.000777368)
(0.0750403 1.13213 -0.000165214)
(0.0595275 1.27165 -9.80087e-05)
(-0.0028195 1.39859 -8.28499e-05)
(0.0354191 1.33311 -6.35012e-05)
(0.106966 1.17349 -0.000124708)
(0.139894 1.80488 -0.000131968)
(0.140898 1.81788 -0.000194093)
(0.105403 1.1565 -0.000105804)
(0.119557 1.2207 -0.00015852)
(0.124236 1.15526 -4.08278e-05)
(0.126622 1.17786 -0.000183918)
(0.117247 1.19659 -4.87067e-05)
(0.0659361 0.273223 -2.81165e-05)
(0.0594657 0.23596 -2.32023e-05)
(0.0932992 0.366586 -2.44421e-05)
(0.112378 0.760965 -0.000150077)
(0.108527 0.68337 -0.000120582)
(-0.00019784 0.00199926 0.565321)
(0.00111948 0.00457451 0.889696)
(0.000923337 0.00278372 0.000129448)
(0.000581452 0.00458767 0.736007)
(0.00187635 0.00631198 0.000112854)
(0.00063116 0.0109093 0.274204)
(-0.0604422 0.579663 -0.00257384)
(0.00764541 0.00111839 1.74201)
(0.000450141 0.00126717 0.303)
(0.0141098 0.515979 -0.00214769)
(0.000831568 0.00068296 0.244223)
(0.0231162 0.48417 -0.00190037)
(0.0610604 0.525436 -0.00214997)
(0.0608044 0.515748 -0.00209635)
(0.000433207 0.00102295 0.243573)
(0.000465493 0.00112074 0.267999)
(0.0572447 0.528233 -0.00204743)
(0.0520285 0.52497 -0.0017404)
(0.04709 0.515383 -0.000401996)
(2.48651e-05 0.000104957 0.223861)
(-0.0190881 -0.104786 0.00145951)
(0.000330581 0.00197821 0.502417)
(0.0913863 0.508254 -0.00168385)
(0.000485024 0.00159801 0.318484)
(0.000487347 0.00160502 0.319763)
(0.485851 -0.193554 -0.003654)
(0.225598 0.213304 0.00160009)
(0.000193621 0.000296784 0.0785969)
(-0.0521304 -0.512539 0.00186864)
(-0.0680599 -0.549823 0.00201462)
(-0.0558442 -0.548493 0.00253976)
(-0.0684823 -0.553188 0.00207006)
(-0.0754507 -0.608642 0.00283259)
(-0.058992 -0.579014 0.00298272)
(-0.0829751 -0.668572 0.00346157)
(0.178671 0.773275 -0.00431155)
(0.446988 2.18873 -0.0119603)
(0.182162 0.788775 -0.00438349)
(0.426564 2.08819 -0.0114477)
(-0.0643515 -0.520828 0.000635911)
(-0.0425503 -0.26536 0.00145914)
(-0.105405 -0.847445 0.00459713)
(-0.0483042 -0.300799 0.00165976)
(1.38983 0.921337 -0.00123872)
(1.39102 0.922018 -0.000567574)
(0.231635 1.0054 -0.0006969)
(0.627368 3.07755 -0.003286)
(0.565696 2.77529 -0.00195715)
(0.202936 0.880711 -0.000926829)
(0.425391 2.52249 -0.00176596)
(0.477665 2.83198 -0.00314207)
(0.000424558 -0.000699838 1.81691e-06)
(0.000782565 0.000895402 -2.89639e-07)
(0.0236363 0.133927 -0.000150632)
(0.0239857 0.135382 -9.68891e-05)
(0.0484001 0.209984 -0.00103496)
(0.0354826 0.161105 -0.000790863)
(0.0585626 0.254879 -0.00129744)
(0.0272018 0.122596 -0.000570596)
(-0.109127 -0.878197 0.00479748)
(-0.0694919 -0.505008 0.00277202)
(0.0163447 0.0764615 -0.000294784)
(-0.0115018 -0.0636504 0.000409507)
(0.0636041 0.231934 -0.00131401)
(0.0715508 0.260879 -0.00145468)
(0.0345631 0.124591 -0.000708011)
(0.0399801 0.144112 -0.000804351)
(0.309758 1.40119 -0.000820828)
(0.183681 0.796803 -0.000230645)
(0.331931 1.56944 -0.00096253)
(0.134177 0.673504 -0.000247354)
(-0.0184762 -0.15557 0.000203861)
(-0.0416638 -0.309061 0.000407528)
(-0.00678951 -0.049657 -2.4533e-06)
(0.0015481 0.00440831 -3.89581e-06)
(-0.0173341 -0.119131 6.57384e-05)
(-0.0230278 -0.161589 0.000119937)
(0.0972211 0.397558 6.75662e-05)
(0.0840113 0.312384 -0.000171515)
(0.0842786 0.313334 -0.000102913)
(0.108633 0.445764 -0.000837649)
(0.166052 0.729494 -0.000363395)
(0.142661 0.657555 -0.000230269)
(0.173364 0.762267 -0.000417214)
(0.182714 0.852186 -0.000260615)
(-0.0030158 1.43216 -0.000298014)
(0.0587716 0.888396 -0.000465098)
(-0.00291487 1.32518 -0.000640605)
(0.0642025 0.968364 -0.000315286)
(-0.0673254 1.64263 -0.000316957)
(1.38872 0.92172 -0.000483272)
(-0.0644198 1.57079 -0.000722166)
(0.495824 4.25258 -0.00251984)
(0.0928929 0.365086 -9.88639e-05)
(0.0781052 0.306706 -0.000187735)
(0.0632057 0.231509 -8.11306e-05)
(0.0623872 0.228855 -4.30165e-05)
(0.0577067 0.302594 -0.000212465)
(0.185614 0.916274 -0.00140069)
(0.0227366 0.126887 -0.000102114)
(0.0483007 0.259274 -0.000149062)
(0.813323 5.09139 0.000982228)
(0.385038 2.57302 -4.83466e-05)
(0.0346592 0.125508 -3.97706e-05)
(0.0340165 0.123417 -1.41852e-05)
(1.24449 0.826806 -0.0037604)
(0.0898051 0.621847 -0.00341313)
(0.246675 0.231377 -0.00129344)
(0.496416 -0.205827 0.000531082)
(0.23351 0.219711 -0.00130762)
(0.518003 -0.215146 0.000289205)
(0.0671801 0.246385 -1.04515e-05)
(0.0309257 0.108781 -1.71196e-06)
(0.0355282 0.128872 3.3591e-06)
(0.285422 0.663132 -3.72016e-05)
(0.275612 0.809125 -0.000147742)
(0.00104217 0.00357282 0.728403)
(0.000431062 0.00197764 0.361593)
(0.000616686 0.00108259 0.382521)
(-0.203195 1.88256 -0.00030064)
(-0.0660888 1.61454 -0.000135861)
(1.38173 0.922069 -0.00142907)
(0.018117 0.0170874 1.7103e-05)
(0.35012 -0.143909 0.000133086)
(0.357351 -0.145292 0.000572876)
(0.0168313 0.0158443 1.14092e-05)
(0.000644359 0.00242493 0.54365)
(0.000491817 0.00125118 0.379065)
(0.000446442 0.00131868 0.34055)
(0.000663458 0.00194738 0.362902)
(-0.0903448 -0.727339 0.00387476)
(1.34621 0.891373 -0.00583143)
(1.33143 0.881551 -0.00576966)
(1.30708 0.86538 -0.00566033)
(1.32999 0.88059 -0.0057648)
(0.39752 1.94498 -0.0106891)
(0.175565 0.759248 -0.00423974)
(0.177414 0.767714 -0.00428292)
(0.419011 2.05105 -0.0112563)
(0.269735 1.59387 -0.00868733)
(0.288504 1.70508 -0.00925198)
(-0.0246793 -0.145836 0.000817689)
(-0.0314699 -0.185125 0.00103839)
(-0.0556965 -0.346472 0.0019262)
(-0.0503338 -0.3133 0.0017322)
(-0.041115 -0.241088 0.00136155)
(-0.0340043 -0.199789 0.00112236)
(0.253239 2.15462 -0.0115783)
(0.240163 2.04245 -0.0110539)
(0.0244839 0.0903571 -0.000453145)
(0.0228344 0.0922398 -0.000500922)
(0.0344173 0.139896 -0.000511534)
(0.032544 0.120343 -0.000629469)
(0.00141482 0.00507843 4.38765e-05)
(0.025478 0.108781 -0.000448707)
(0.0347519 0.149971 -0.000704685)
(0.0203159 0.0900935 -0.000352516)
(0.0405056 0.149969 -0.000800481)
(0.0444294 0.181137 -0.000712256)
(0.0348133 0.128789 -0.000678565)
(0.042541 0.635227 -0.00338544)
(-0.00165798 1.0241 -0.00538941)
(-0.0018528 1.12928 -0.00594045)
(0.0468827 0.700337 -0.00373734)
(-0.0544412 1.34494 -0.00702622)
(1.29742 0.858946 -0.00560939)
(-0.0569368 1.4062 -0.00734891)
(-0.0488635 1.20793 -0.00630923)
(-0.0532293 1.3152 -0.00687184)
(1.29384 0.856568 -0.00559347)
(-0.00190795 1.15789 -0.00608947)
(0.051225 0.766328 -0.00408101)
(-0.00201652 1.21408 -0.0063866)
(0.0482097 0.720644 -0.00381665)
(0.226259 1.33803 -0.00701149)
(0.411328 2.55728 -0.0160385)
(0.237252 1.58066 -0.00859643)
(0.247238 1.45973 -0.00803587)
(0.404594 2.52342 -0.0136333)
(0.377126 2.35129 -0.0129773)
(0.195748 1.30111 -0.00845723)
(-0.0814286 -0.598021 0.00282008)
(-0.102237 -0.82257 0.00461198)
(-0.0668038 -0.443513 0.00245319)
(-0.0569257 -0.354758 0.00200181)
(-0.0800966 -0.536978 0.00287666)
(-0.0531623 -0.33205 0.00191124)
(-0.0245004 -0.13631 0.000806544)
(-0.0448015 -0.263223 0.00151868)
(0.00286518 0.007769 0.00018622)
(-0.0473779 -0.279557 0.00165136)
(0.231174 1.03875 -0.00606474)
(0.179426 0.775335 -0.0043015)
(0.238001 1.12159 -0.0061902)
(0.177497 0.767222 -0.00426479)
(0.225307 1.01584 -0.00563197)
(0.241131 1.13578 -0.0067)
(0.367823 1.79793 -0.0100973)
(0.105206 0.411349 -0.00224182)
(0.0892925 0.349046 -0.00193427)
(0.0950971 0.346895 -0.00188171)
(0.0752443 0.274353 -0.00152028)
(0.086742 0.339106 -0.00189277)
(0.0808327 0.316071 -0.00177985)
(0.0552895 0.199422 -0.00107918)
(0.042513 0.153247 -0.000849367)
(0.120855 0.280132 -0.00150914)
(0.102269 0.236945 -0.00123629)
(-0.0207306 -0.157124 0.000896874)
(-0.0182673 -0.130655 0.000749051)
(0.0809291 0.413684 -0.00255895)
(0.0855836 0.427214 -0.00231271)
(0.12362 0.652708 -0.00418187)
(-0.019247 -0.190238 0.000990816)
(-0.019886 -0.181333 0.0010133)
(-0.0171605 -0.188874 0.000734976)
(-0.0211949 -0.293914 0.00155529)
(0.0768594 0.367858 -0.00215657)
(0.0814618 0.406704 -0.00219224)
(-0.00457235 -0.0192296 0.00015615)
(0.00545353 0.0209072 -1.96607e-06)
(-0.00127533 -0.0056704 9.8569e-05)
(0.0121771 0.0445755 -0.000171986)
(0.0175829 0.64571 -0.00338358)
(-0.00129602 0.845432 -0.00444045)
(0.0267644 0.564788 -0.00304344)
(0.0359743 0.538468 -0.00294206)
(-0.104637 0.994629 -0.00654269)
(-0.0410097 1.01689 -0.00534744)
(1.20896 0.807399 -0.00214566)
(-0.452193 1.47168 -0.00713864)
(-0.0448773 1.11062 -0.00581239)
(-0.139802 1.30112 -0.00669008)
(-0.012055 -0.0629798 0.000404879)
(-0.0089417 -0.0459854 0.000306994)
(-0.010745 -0.0550147 0.000361092)
(-0.0102457 -0.0537269 0.000351019)
(-0.0249024 -0.136681 0.000677634)
(0.000928385 0.00230857 0.386692)
(0.058286 0.392187 -0.00214341)
(0.0917108 0.635212 -0.0035707)
(0.0602428 0.405053 -0.00227004)
(0.125676 0.45873 -0.0024438)
(0.152987 0.558713 -0.00297451)
(0.0725328 0.261782 -0.00139158)
(0.061669 0.215752 -0.00115688)
(0.0808558 0.283382 -0.0016934)
(0.0887562 0.320536 -0.00171878)
(0.454385 -0.189884 -0.00232188)
(0.210547 0.193356 -0.000240867)
(0.257757 0.23975 -0.00114155)
(0.525456 -0.219213 -0.000536392)
(0.218812 0.948559 -0.00512336)
(0.57298 2.80821 -0.0148298)
(0.224982 0.975443 -0.0051775)
(0.549616 2.69347 -0.0143752)
(-0.064528 -0.522034 0.000905969)
(-5.03566e-06 -0.00330461 8.69866e-06)
(0.000200027 -0.00203961 5.02348e-06)
(0.235804 1.02285 -0.00178925)
(0.656518 3.21955 -0.00681725)
(0.242917 1.05354 -0.00219116)
(-0.0614597 -0.446831 0.00242332)
(0.178309 0.784426 -0.000773601)
(0.145253 0.670628 -0.00076252)
(0.178546 0.785538 -0.000893359)
(0.145134 0.670004 -0.000666579)
(0.0690321 0.252934 -0.000255668)
(0.070724 0.259113 -0.000228218)
(-0.0322041 -0.236388 0.000260886)
(0.164863 0.816273 -0.000926695)
(0.0651474 0.342759 -0.00038866)
(0.0331617 0.120155 -0.000119947)
(0.0383705 0.13902 -0.000128119)
(1.39073 0.921912 -0.000449544)
(0.0368621 0.0346725 -6.12434e-06)
(0.349616 -0.145111 1.12249e-05)
(0.0389303 0.0366139 -1.28732e-05)
(0.348526 -0.144593 4.11351e-06)
(-0.0212181 -0.133981 0.000710638)
(-0.0237235 -0.149412 0.000800598)
(-0.04048 -0.252609 0.0013873)
(-0.0953127 -0.766963 0.00411881)
(-0.0354199 -0.221448 0.00121077)
(0.183893 0.796414 -0.00442137)
(0.195494 0.847424 -0.0046872)
(0.101575 0.444604 -0.0023737)
(0.0761717 0.349684 -0.00186065)
(0.105161 0.460422 -0.00246084)
(0.0727811 0.333981 -0.00177325)
(0.0424877 0.19367 -0.000982765)
(0.0671672 0.292863 -0.00151536)
(0.0740886 0.323399 -0.00169082)
(0.0483726 0.22097 -0.00114068)
(0.057697 0.211058 -0.0012227)
(0.0561246 0.20517 -0.00118897)
(0.0618215 0.225459 -0.00128294)
(0.0579663 0.211495 -0.00121451)
(0.0134933 0.0688949 -0.000343373)
(0.0671702 0.329541 -0.00173187)
(-0.068952 -0.500953 0.00274516)
(0.0238819 0.114192 -0.000519956)
(-0.00772344 -0.0434752 0.000289696)
(0.0309916 0.149663 -0.000725842)
(0.0312824 0.113172 -0.000661733)
(0.029938 0.108225 -0.000633081)
(0.0333504 0.120232 -0.000686822)
(0.0307664 0.110967 -0.000641271)
(1.3095 0.86696 -0.00566735)
(1.27622 0.844935 -0.00544549)
(0.127161 0.119781 -0.000747854)
(0.363362 -0.150866 0.000494765)
(0.373199 -0.154949 0.000509935)
(0.115289 0.108586 -0.000681774)
(0.473713 -0.196439 0.000594698)
(0.217079 0.204449 -0.00124178)
(0.202992 0.191246 -0.00116841)
(0.454093 -0.188409 0.000585477)
(0.00015199 -0.00753813 1.66302e-05)
(0.000176184 -0.00575454 1.83632e-05)
(-0.0511756 -0.503349 0.00152948)
(-5.01699e-05 -0.0222242 8.2172e-05)
(1.15292e-05 -0.0177466 5.42819e-05)
(-0.0661318 -0.534543 0.00163373)
(-0.0539962 -0.530577 0.00226103)
(-0.000223185 -0.034857 0.000163923)
(-7.51978e-05 -0.0240397 0.000104386)
(-0.071226 -0.575008 0.00242978)
(-0.0718001 -0.57958 0.0024825)
(-1.3322e-05 -0.0194455 0.000104658)
(-0.0579468 -0.568875 0.00282799)
(-0.000229821 -0.0353036 0.000177745)
(-0.0800243 -0.64506 0.00322279)
(1.36836 0.906197 -0.00577063)
(1.3652 0.904074 -0.00581516)
(1.36139 0.901508 -0.00584894)
(1.36681 0.905133 -0.00582851)
(0.203168 0.880975 -0.00477025)
(0.523523 2.56573 -0.0138414)
(0.541112 2.65189 -0.0141875)
(0.189937 0.8236 -0.00449999)
(0.179475 0.776877 -0.00432681)
(0.236339 1.06651 -0.00590181)
(0.266968 1.25938 -0.00690932)
(0.440487 2.15673 -0.0117983)
(0.180951 0.783397 -0.00435814)
(0.243652 1.0999 -0.00606653)
(0.256402 1.2092 -0.00665572)
(0.433024 2.12 -0.0116168)
(1.38796 0.920079 -0.00249161)
(1.38875 0.92063 -0.00197613)
(1.38954 0.921136 -0.00133919)
(1.38917 0.920913 -0.00189672)
(0.472833 2.80334 -0.00351142)
(0.433214 2.5685 -0.00425314)
(0.00038059 -0.000938842 2.1783e-06)
(-0.0644691 -0.52161 0.000837644)
(0.000261402 -0.00166144 4.06722e-06)
(0.0232133 0.131485 -0.000279244)
(0.0234414 0.132818 -0.000234556)
(0.0236005 0.133747 -0.000167837)
(0.0235054 0.133194 -0.000218457)
(0.215684 0.935846 -0.00108301)
(0.237424 1.03006 -0.00164991)
(0.69959 3.43177 -0.00560106)
(-0.0556995 -0.370099 0.00201873)
(-0.0443723 -0.276582 0.00152244)
(-0.0650244 -0.472529 0.00257267)
(-0.0464096 -0.289129 0.0015935)
(-0.0604372 -0.401274 0.00219754)
(0.484891 4.15363 -0.00402693)
(0.488729 4.1857 -0.00327845)
(0.0839026 0.311988 -0.000196033)
(0.10865 0.445871 0.000281337)
(0.108695 0.446088 -0.00096789)
(0.083733 0.311391 -0.000266327)
(0.141624 0.653075 -0.000504479)
(0.176873 0.777901 -0.000541572)
(0.177998 0.78299 -0.000659809)
(0.144667 0.66766 -0.000569827)
(0.10865 0.445909 0.000148)
(0.0835655 0.310806 -0.00036097)
(0.108589 0.445681 -0.00109927)
(0.0836634 0.311144 -0.00029256)
(0.0581484 0.879858 -0.000494402)
(-0.00284423 1.28581 -0.000719992)
(-0.00247995 1.0946 -0.000896779)
(0.0586946 0.888739 -0.000698986)
(-0.0537198 1.3076 -0.00112794)
(1.39026 0.921591 -0.000968329)
(-0.0501396 1.22023 -0.00130648)
(-0.0630219 1.53619 -0.000827917)
(-0.0565212 1.3762 -0.00107749)
(1.39122 0.922204 -0.00085349)
(-0.00237413 1.02194 -0.000898679)
(0.0626737 0.949696 -0.00105719)
(-0.00228673 0.949909 -0.00102112)
(0.0582102 0.881668 -0.000752161)
(0.31307 1.41644 -0.000976853)
(0.222444 0.965437 -0.000801063)
(0.598182 2.93456 -0.00271744)
(0.345678 1.63404 -0.00172343)
(0.332782 1.5736 -0.0010681)
(0.580869 2.84984 -0.0023715)
(0.209333 0.908508 -0.000872218)
(0.293048 1.32553 -0.00138549)
(0.0727096 0.285538 -0.00019463)
(0.0684907 0.268954 -0.000216943)
(0.0662637 0.242781 -9.9618e-05)
(0.0703015 0.257614 -0.000207542)
(0.0689986 0.270927 -0.00024203)
(0.752121 4.70641 -0.00358818)
(0.45415 2.69251 -0.00224711)
(0.794973 4.97576 -0.00412701)
(0.513193 3.43311 -0.00336925)
(0.527269 3.52654 -0.00288804)
(0.473665 2.80837 -0.00266812)
(-0.0304433 -0.224172 0.000164457)
(-0.0185477 -0.125862 0.000141031)
(0.000516041 -0.000217842 1.15612e-06)
(-0.0178816 -0.122102 8.97529e-05)
(0.000531137 -0.000307869 1.24492e-06)
(0.064359 0.338053 -0.000240334)
(0.162427 0.803305 -0.000571465)
(0.164847 0.815841 -0.000695177)
(0.0495789 0.267273 -0.000302605)
(0.023702 0.134235 -0.000132766)
(0.0495136 0.266385 -0.000191932)
(0.0237143 0.134137 -0.000113848)
(0.0377168 0.136643 -4.19132e-05)
(0.0405526 0.14697 -0.000126686)
(0.065796 0.23991 -0.00135343)
(0.0682568 0.248866 -0.00139669)
(0.0319785 0.111763 -0.000636641)
(0.0360545 0.129961 -0.000734708)
(0.0378861 0.132414 -0.000738916)
(0.0377457 0.136052 -0.000764488)
(0.274509 0.806082 -0.000408252)
(0.27531 0.808283 -0.000240267)
(0.285375 0.663208 -0.000264817)
(0.285518 0.663503 -0.000215508)
(-0.203638 1.8862 -0.000388101)
(-0.066634 1.6265 -0.00050331)
(1.38996 0.921751 -0.00043269)
(-0.854371 2.7778 -0.00107144)
(-0.0656294 1.60115 -0.00061944)
(-0.198912 1.84061 -0.000797374)
(0.0600471 0.220013 -6.27792e-05)
(0.0603894 0.221481 -5.60773e-05)
(0.0328067 0.118864 -3.08164e-05)
(0.0314383 0.110381 -2.95617e-05)
(0.0305676 0.107524 -7.41524e-06)
(0.0331877 0.120376 -2.48472e-05)
(0.413762 2.44861 -0.0130235)
(0.383156 2.26718 -0.0121613)
(-0.000354576 -0.00508207 3.99392e-05)
(-0.00318091 -0.0214406 0.000128321)
(-0.0280821 -0.176255 0.000954725)
(-0.0248391 -0.156284 0.000839711)
(-0.00809981 -0.0499057 0.000284396)
(-0.00445712 -0.0288274 0.000168307)
(1.34514 0.890666 -0.00582574)
(1.35512 0.897313 -0.00585438)
(1.36228 0.902092 -0.00585573)
(1.35593 0.897853 -0.00585473)
(-0.0222328 -0.13168 0.000738773)
(-0.0164426 -0.0981807 0.000551582)
(0.34773 2.05644 -0.0110641)
(0.372719 2.20515 -0.0118447)
(-0.0938322 -0.755155 0.00404795)
(-0.0295321 -0.185185 0.00100511)
(-0.0336615 -0.210619 0.00114976)
(-0.0097627 -0.059528 0.000337186)
(-0.0144062 -0.0863981 0.000486308)
(0.199444 0.864666 -0.0047592)
(0.512886 2.51348 -0.0136058)
(0.191315 0.829505 -0.00453989)
(0.478236 2.34286 -0.0127497)
(0.282871 2.40769 -0.0129519)
(0.291197 2.47897 -0.0133429)
(0.0648875 0.265276 -0.00108233)
(0.0526173 0.195046 -0.00105575)
(0.055436 0.205536 -0.00111405)
(0.0609643 0.249141 -0.00165038)
(0.0965933 0.42264 -0.00225147)
(0.0642319 0.294405 -0.00155388)
(0.0921849 0.403205 -0.00214206)
(0.0682843 0.313161 -0.00165894)
(0.0587425 0.217844 -0.00118202)
(0.0563748 0.20903 -0.0011339)
(0.0696808 0.284994 -0.00116628)
(-0.00234157 1.37657 -0.00723471)
(0.0575126 0.860966 -0.00457807)
(0.0588206 0.880676 -0.00468022)
(-0.00228542 1.34958 -0.00709489)
(-0.0641942 1.58405 -0.00826906)
(1.34217 0.888678 -0.00581562)
(-0.0649322 1.60197 -0.0083584)
(-0.00236109 1.38587 -0.00727992)
(0.0603008 0.903022 -0.0047926)
(-0.00239501 1.39905 -0.00734451)
(0.0592551 0.887229 -0.00471361)
(-0.063758 1.57338 -0.0082172)
(1.33904 0.886605 -0.00580256)
(-0.0625522 1.54388 -0.00806498)
(0.316954 2.69904 -0.014468)
(0.31106 2.64862 -0.01421)
(0.0422953 0.156631 -0.000838696)
(0.0465675 0.172531 -0.000928925)
(0.054482 0.222481 -0.00146607)
(0.0514116 0.190559 -0.00103056)
(0.0591574 0.24171 -0.000980569)
(0.0480056 0.177882 -0.00095888)
(0.0807478 0.352767 -0.00185851)
(0.0588597 0.269539 -0.00141515)
(0.0859842 0.375865 -0.00198921)
(0.0541186 0.247586 -0.00129116)
(-0.0576188 1.42287 -0.00743823)
(-0.0598805 1.47844 -0.00772523)
(1.31774 0.872457 -0.00570878)
(0.0520678 0.779044 -0.00414972)
(-0.00205128 1.23017 -0.00647337)
(-0.00215669 1.28575 -0.006762)
(0.054403 0.814149 -0.00433441)
(-0.00218873 1.30211 -0.00684775)
(0.0569502 0.852474 -0.00453498)
(0.0552045 0.826204 -0.00439623)
(-0.00226024 1.33794 -0.00703669)
(-0.060552 1.49491 -0.00781112)
(1.32247 0.875597 -0.00572821)
(-0.0620646 1.53197 -0.00800603)
(0.0754948 0.295714 -0.0016799)
(0.0756811 0.296314 -0.00168457)
(0.0556077 0.203099 -0.00117557)
(0.0557701 0.203829 -0.00118141)
(0.0759525 0.297685 -0.00168887)
(0.241046 1.13622 -0.00627496)
(0.404464 1.9793 -0.0109024)
(0.226554 1.02168 -0.00566831)
(0.175607 0.759599 -0.00424844)
(0.176614 0.764117 -0.00426848)
(0.233514 1.05362 -0.00583539)
(0.412312 2.01804 -0.0110801)
(0.252337 1.18991 -0.00655691)
(0.0770373 0.301389 -0.00170948)
(0.0766641 0.299979 -0.00170292)
(0.07569 0.296302 -0.00168447)
(0.055679 0.203314 -0.00117618)
(0.0571668 0.208617 -0.00120084)
(0.263331 1.75433 -0.00950086)
(0.419398 2.61615 -0.0141977)
(0.275888 1.63027 -0.00886334)
(0.282527 1.66964 -0.00907344)
(0.450146 2.80843 -0.015208)
(0.440427 2.74774 -0.0148925)
(0.270085 1.79947 -0.00972848)
(-0.00218388 -0.0145981 0.000109704)
(-0.026777 -0.157975 0.000885544)
(0.0508514 0.248441 -0.00128228)
(0.00542574 0.0262208 -0.000106111)
(-0.0292196 -0.172107 0.000964884)
(-0.00983606 -0.0562043 0.000342091)
(-0.0660468 -0.438324 0.00241766)
(-0.0539828 -0.335822 0.00186329)
(-0.0661783 -0.480838 0.00262253)
(-0.0522156 -0.324899 0.00179794)
(-0.0620306 -0.411766 0.00225922)
(0.461337 2.87845 -0.0155736)
(0.470502 2.9358 -0.015868)
(0.293409 1.95542 -0.0105352)
(0.287524 1.91607 -0.0103327)
(-0.021664 -0.120671 0.000710406)
(-0.0387371 -0.227228 0.0012792)
(0.0442138 0.215451 -0.00109744)
(0.00212918 0.00878088 -8.61607e-06)
(0.0379854 0.184475 -0.000924276)
(-0.0363491 -0.213371 0.00119871)
(-0.0128514 -0.0726018 0.000434321)
(0.0292931 0.10578 -0.000617752)
(0.0296198 0.107046 -0.000626279)
(0.0293155 0.105833 -0.000617521)
(0.0302301 0.109056 -0.000632165)
(0.117271 0.343348 -0.00184121)
(0.143052 0.419048 -0.00228205)
(0.190082 0.440926 -0.00246547)
(0.184773 0.4286 -0.002395)
(0.157517 0.365323 -0.00202942)
(0.165627 0.384161 -0.00214173)
(0.150016 0.439503 -0.00240025)
(-0.596822 1.94381 -0.00970398)
(1.30407 0.863357 -0.00563863)
(-0.0562066 1.38829 -0.00725511)
(-0.167769 1.56043 -0.00806407)
(-0.569305 1.85436 -0.0093175)
(-0.499999 1.62804 -0.00803228)
(-0.517958 1.68686 -0.00842708)
(-0.14506 1.34998 -0.00697289)
(-0.0503752 1.24509 -0.00650107)
(1.28655 0.851716 -0.0055376)
(-0.552128 1.79855 -0.00898407)
(0.0872876 0.318333 -0.00173491)
(0.0804361 0.293324 -0.00161497)
(0.140298 0.132168 -0.000820901)
(0.398793 -0.165577 0.000548449)
(0.385275 -0.159962 0.000528385)
(0.153926 0.145018 -0.000894615)
(0.0539904 0.188831 -0.00101964)
(0.0504068 0.181756 -0.000988607)
(0.0458907 0.165447 -0.00091009)
(0.0406264 0.142 -0.000786091)
(0.184545 0.173882 -0.00106538)
(0.415336 -0.172436 0.000562141)
(0.432787 -0.179644 0.000578127)
(0.16946 0.159666 -0.000979158)
(0.651726 3.19612 -0.00714715)
(0.251773 1.09198 -0.00243058)
(0.208814 0.90544 -0.00235117)
(0.646237 3.16859 -0.00811842)
(0.258311 1.11988 -0.00452548)
(0.661457 3.24305 -0.0121654)
(0.238901 1.03607 -0.00388422)
(0.631692 3.09643 -0.0124272)
(0.210051 0.910801 -0.00442813)
(0.619292 3.03541 -0.0144655)
(0.189882 0.823575 -0.00397137)
(0.644222 3.15796 -0.0152999)
(-0.0646495 -0.52293 0.00103538)
(-0.0325105 -0.2384 0.000503521)
(-0.0473536 -0.345148 0.00180051)
(-0.0601205 -0.437176 0.00236749)
(-0.0980938 -0.789139 0.00425143)
(-0.051713 -0.50852 0.00172821)
(-0.0052167 -0.157562 0.000572542)
(-0.00517597 -0.156412 0.000520914)
(9.98342e-05 -0.0112811 4.2818e-05)
(0.000171167 -0.00611442 2.01789e-05)
(-0.000141603 -0.00414742 1.0968e-05)
(-0.0651562 -0.526856 0.00134042)
(-0.000478209 -0.00622241 1.80587e-05)
(-0.0671947 -0.542964 0.00185606)