/*--------------------------------*- C++ -*----------------------------------*\
| =========                 |                                                 |
| \\      /  F ield         | OpenFOAM: The Open Source CFD Toolbox           |
|  \\    /   O peration     | Version:  2306                                  |
|   \\  /    A nd           | Website:  www.openfoam.com                      |
|    \\/     M anipulation  |                                                 |
\*---------------------------------------------------------------------------*/
FoamFile
{
    version     2.0;
    format      ascii;
    arch        "LSB;label=32;scalar=64";
    class       volScalarField;
    location    "1.75";
    object      p;
}
// * * * * * * * * * * * * * * * * * * * * * * * * * * * * * * * * * * * * * //

dimensions      [0 2 -2 0 0 0 0];

internalField   nonuniform List<scalar> 
111542
(
60.7629
62.1169
65.3336
70.5725
77.9016
87.5233
99.585
114.1
130.555
147.498
162.344
171.066
169.633
156.924
136.093
112.922
91.3942
72.9579
57.675
45.339
35.5503
27.9988
22.3102
17.9845
14.6958
12.1748
10.1446
8.57253
7.40691
6.51811
5.82067
5.25592
4.83362
4.48083
4.14352
3.77762
3.32793
2.7877
2.05354
1.02892
59.6444
60.9574
64.1385
69.3107
76.6239
86.3855
98.9561
114.572
133.05
153.295
172.577
185.335
183.963
167.233
141.043
114.096
90.581
71.1227
55.4022
42.99
33.4134
26.1639
20.7305
16.7302
13.7236
11.387
9.55343
8.14148
7.06319
6.22456
5.55983
5.02695
4.59907
4.23382
3.8891
3.52516
3.09679
2.55766
1.8356
0.870456
57.4319
58.6751
61.7067
66.6846
73.8696
83.7635
97.0682
114.581
136.956
164.021
192.419
213.483
213.054
187.157
150.576
117.158
89.884
68.3828
51.7943
39.2014
29.8384
23.1991
18.4277
14.9291
12.08
9.75976
8.00297
6.72237
5.7797
5.07259
4.53851
4.1336
3.82048
3.56395
3.32665
3.07069
2.75022
2.30854
1.67142
0.760767
54.185
55.2964
58.0222
62.5669
69.3048
78.9564
92.6637
112.121
139.739
178.781
213.874
256.326
261.658
220.406
167.683
126.742
93.6691
68.7418
50.5384
37.243
23.5654
17.3526
14.843
13.3242
11.2666
9.17203
7.50915
6.26321
5.29973
4.54056
3.94766
3.48817
3.12958
2.83924
2.58604
2.33672
2.04526
1.64989
1.05863
0.160278
50.025
50.9209
53.1324
56.8817
62.5987
71.1238
83.8983
103.345
133.499
178.377
255.345
341.615
365.481
257.556
172.13
122.604
83.1111
56.783
39.5143
28.3333
21.015
6.30544
5.68457
6.22271
5.51879
4.63755
4.00453
3.53628
3.14966
2.8318
2.58165
2.38743
2.23549
2.10938
1.99564
1.87631
1.71967
1.47171
1.01804
0.0891608
45.1617
45.7513
47.2176
49.7442
53.7008
59.8193
69.4285
84.9841
111.256
166.031
259.809
454.928
620.716
248.808
173.719
114.358
66.8778
40.8912
25.7854
16.6915
14.8092
12.6654
12.0456
7.66076
4.55733
3.03417
2.20645
1.61797
1.17903
0.879143
0.691227
0.581491
0.524571
0.503057
0.503362
0.512351
0.51503
0.497552
0.465517
0.546643
39.9042
40.1126
40.6437
41.5816
43.1028
45.5441
49.4875
55.9142
66.5128
105.861
181.504
412.028
1950.91
-417.164
195.222
79.2823
31.3367
16.2948
8.42879
-1.04119
-5.31491
14.1741
14.0637
8.86159
5.59224
4.24063
3.56218
3.03747
2.61095
2.29534
2.07198
1.91228
1.7976
1.71461
1.65403
1.60744
1.55839
1.49412
1.39552
1.23767
34.6488
34.4432
33.9572
33.148
31.9436
30.1707
27.4232
22.746
13.7301
15.7465
-1.74319
-164.744
-1011.19
-1052.94
-313.742
-101.81
-46.4134
-25.7191
-16.2552
-9.85845
-3.23529
-7.6501
-5.99195
-4.52329
-3.71656
-2.85656
-2.0042
-1.30938
-0.76342
-0.312706
0.072212
0.402137
0.683809
0.921491
1.11706
1.26742
1.35589
1.34928
1.1783
0.715405
29.7931
29.2215
27.78
25.337
21.6264
16.0934
7.71744
-5.39863
-26.8969
-50.4529
-124.794
-270.507
-481.862
-509.685
-321.953
-175.779
-100.598
-61.0041
-38.7959
-24.744
-14.8068
-8.29688
-4.409
-1.61845
0.078057
1.1292
1.86196
2.37275
2.70846
2.92199
3.05535
3.13351
3.16972
3.16969
3.13205
3.04865
2.89472
2.62076
2.1319
1.24084
25.789
24.8922
22.6701
18.9205
13.2676
4.99092
-7.10961
-25.0009
-51.9687
-93.6399
-151.891
-225.017
-290.501
-298.054
-239.499
-165.653
-109.956
-74.2597
-51.1244
-35.1092
-23.807
-16.3629
-11.447
-7.96426
-5.49677
-3.73807
-2.41651
-1.38641
-0.57846
0.0584284
0.566969
0.976862
1.30479
1.558
1.73396
1.8248
1.80651
1.63621
1.25419
0.614755
22.9325
21.8114
19.0506
14.4227
7.51257
-2.39865
-16.4063
-35.9919
-63.0089
-99.3
-144.78
-194.15
-232.488
-239.09
-207.98
-158.58
-113.832
-81.2434
-58.3947
-41.7738
-29.4579
-20.4904
-13.9639
-9.19169
-5.70376
-3.16251
-1.29806
0.0806752
1.09826
1.84295
2.38244
2.76644
3.02776
3.18419
3.23387
3.18676
3.01885
2.68352
2.10911
1.16798
21.4483
20.2238
17.177
12.1335
4.605
-6.03296
-20.7872
-40.7863
-67.1655
-100.243
-138.459
-176.33
-203.845
-209.471
-189.184
-152.705
-114.926
-84.3407
-61.6559
-44.7541
-32.0138
-22.5283
-15.6013
-10.5804
-6.97907
-4.37713
-2.47887
-1.07869
-0.0365278
0.743077
1.32785
1.76524
2.08732
2.31585
2.39517
2.39941
2.2861
2.00469
1.50589
0.739453
60.2044
61.5112
64.6631
69.7503
76.8567
86.1757
97.8849
111.952
127.862
144.249
158.594
166.945
165.312
152.793
132.461
109.904
89.0289
71.144
56.3079
44.2943
34.7843
27.4155
21.8028
17.5576
14.3181
11.7929
9.79978
8.26062
7.09943
6.21977
5.5444
5.02034
4.61356
4.27676
3.96486
3.63565
3.24342
2.73915
2.04256
1.05434
59.0964
60.3773
63.4743
68.4959
75.589
85.0519
97.2369
112.366
130.262
149.884
168.571
180.993
179.22
162.712
137.162
110.995
88.2083
69.3422
54.0776
42.0073
32.686
25.5807
20.2137
16.2614
13.2916
10.9761
9.16609
7.77788
6.72078
5.9067
5.27144
4.77132
4.37217
4.03605
3.72554
3.40194
3.02192
2.5308
1.85619
0.919194
56.9112
58.1258
61.0716
65.9004
72.8647
82.45
95.3379
112.306
134
160.276
187.84
208.115
207.651
182.144
146.426
113.998
87.5721
66.7125
50.5857
38.3364
29.2565
22.7142
17.9065
14.356
11.4893
9.18537
7.46843
6.24142
5.3569
4.70691
4.22682
3.87153
3.60351
3.38836
3.19319
2.98257
2.7142
2.32854
1.74039
0.832397
53.707
54.7925
57.4372
61.8388
68.3611
77.7035
90.9782
109.844
136.683
174.748
210.273
251.934
256.907
215.867
164.183
124.156
91.8084
67.3977
49.5408
36.4919
22.8785
16.816
14.2376
12.6149
10.4876
8.39561
6.79551
5.63992
4.77078
4.09992
3.58599
3.19476
2.89544
2.65788
2.45565
2.26002
2.03128
1.70575
1.17407
0.248096
49.6049
50.4785
52.619
56.2408
61.7634
70.006
82.3789
101.266
130.668
175.557
251.573
336.695
359.594
252.267
168.886
120.515
81.7226
55.7708
38.6745
27.5605
20.2689
5.34021
4.53568
5.03972
4.35592
3.56744
3.08354
2.77425
2.52735
2.32265
2.16071
2.03369
1.93414
1.85175
1.77857
1.70511
1.60905
1.43829
1.06073
0.103069
44.8134
45.3854
46.7964
49.2228
53.0269
58.926
68.229
83.3717
109.114
163.843
257.351
450.946
615.26
244.709
172.457
113.868
66.7758
40.7633
25.5037
16.1548
13.4969
10.5848
9.9702
5.88243
3.13372
1.95353
1.42387
1.07335
0.80801
0.624329
0.508091
0.438303
0.402716
0.393209
0.406045
0.43884
0.48947
0.558065
0.657928
0.876913
39.6311
39.8342
40.331
41.2049
42.6332
44.9498
48.7368
54.9935
65.4721
104.836
180.518
410.792
1941.19
206.284
81.3879
32.1134
16.3838
8.06953
-1.29507
-4.64975
16.7695
15.3895
9.40945
5.89529
4.3752
3.5204
2.84159
2.29397
1.8843
1.58767
1.37201
1.21771
1.1107
1.0436
1.01186
1.01111
1.0429
1.12381
1.33875
34.452
34.2575
33.76
32.9275
31.6975
29.9073
27.1729
22.5931
13.875
16.0521
-0.836109
-161.648
-996.243
-1037.21
-308.751
-100.137
-45.3056
-25.2668
-16.2391
-9.97138
-3.27941
-7.72137
-6.34473
-4.99044
-4.05702
-3.07869
-2.18197
-1.47892
-0.935517
-0.493265
-0.121125
0.194856
0.464976
0.695929
0.894118
1.062
1.19142
1.25608
1.18834
0.81707
29.6906
29.1221
27.6884
25.2623
21.5889
16.1344
7.91652
-4.89692
-25.8432
-49.2213
-122.078
-265.73
-474.376
-499.589
-316.04
-172.091
-98.3416
-59.8131
-38.2639
-24.5701
-14.7582
-8.57242
-4.73323
-1.93521
-0.181214
0.903261
1.62644
2.10645
2.40664
2.585
2.68574
2.73579
2.75003
2.73585
2.69465
2.62194
2.4976
2.27676
1.86889
1.09227
25.7499
24.8637
22.6717
18.9705
13.4017
5.2733
-6.57552
-24.0485
-50.3407
-90.9744
-147.807
-219.201
-283.306
-290.297
-232.872
-160.936
-106.994
-72.5812
-50.2712
-34.7749
-23.8068
-16.5648
-11.7182
-8.24717
-5.77435
-4.00615
-2.67762
-1.64542
-0.840293
-0.210412
0.288653
0.688293
1.00715
1.25435
1.43097
1.53136
1.53503
1.40244
1.07751
0.517657
22.9456
21.8411
19.1196
14.5573
7.76518
-1.95892
-15.6722
-34.8104
-61.1682
-96.5436
-140.843
-188.877
-226.181
-232.602
-202.183
-154.204
-110.882
-79.4197
-57.3506
-41.2532
-29.292
-20.5566
-14.1548
-9.45368
-6.00627
-3.48557
-1.63092
-0.258938
0.750968
1.4863
2.01557
2.38941
2.64162
2.792
2.84698
2.80812
2.65694
2.35308
1.83254
0.988688
21.4938
20.2761
17.286
12.2997
4.92031
-5.51942
-19.9647
-39.5202
-65.2405
-97.5028
-134.73
-171.573
-198.31
-203.813
-184.108
-148.604
-111.977
-82.4291
-60.5029
-44.1314
-31.7502
-22.5072
-15.7351
-10.8217
-7.26409
-4.68073
-2.79131
-1.3951
-0.355381
0.421379
1.00224
1.43451
1.74924
1.96241
2.07088
2.084
1.98124
1.72449
1.27228
0.598609
59.1463
60.3854
63.3681
68.1618
74.8439
83.5923
94.5686
107.721
122.557
137.797
151.033
158.556
156.675
144.555
125.182
103.859
84.2134
67.3885
53.4088
42.0601
33.0575
26.0421
20.6643
16.6055
13.5226
11.1217
9.23265
7.76569
6.64415
5.78819
5.12963
4.61818
4.21478
3.88291
3.58553
3.2838
2.93488
2.48627
1.86899
0.992741
58.063
59.2793
62.2042
66.9314
73.5952
82.4702
93.8788
108.017
124.716
142.993
160.354
171.599
169.646
153.719
129.432
104.779
83.386
65.6547
51.273
39.8785
31.0619
24.2625
19.1181
15.3865
12.6118
10.4306
8.6971
7.34213
6.29104
5.47054
4.82512
4.31498
3.90691
3.5689
3.26895
2.97222
2.6382
2.21411
1.63239
0.820875
55.9297
57.0824
59.858
64.3937
70.9226
79.8948
91.9431
107.795
128.069
152.658
178.467
197.443
196.372
171.745
137.89
107.456
82.7014
63.114
47.9242
36.3863
27.9034
21.6081
16.9537
13.622
10.9879
8.84835
7.21109
6.0038
5.10563
4.42638
3.9124
3.52528
3.23123
3.00083
2.8057
2.61609
2.39421
2.08464
1.6006
0.809066
52.8059
53.8338
56.317
60.4363
66.531
75.2539
87.6477
105.282
130.449
166.327
201.345
241.075
245.206
205.097
155.701
117.928
87.2739
64.081
47.072
34.627
21.2598
15.7259
13.6228
12.1743
10.0292
7.84545
6.12556
4.84556
3.86475
3.1044
2.52491
2.09228
1.77427
1.54108
1.3686
1.23282
1.10152
0.919465
0.585105
-0.07374
48.8133
49.6357
51.6336
55.0028
60.1372
67.8075
79.349
97.0409
124.765
168.586
241.911
324.006
344.963
239.415
160.289
115.05
77.8895
52.8639
36.3107
25.478
18.0716
3.29992
4.15835
5.45158
4.80125
3.77345
3.0104
2.44125
1.97059
1.58567
1.28654
1.06271
0.903079
0.793665
0.727897
0.700607
0.703737
0.703602
0.586359
-0.0410832
44.1604
44.6886
45.9873
48.214
51.7112
57.1601
65.8155
80.0368
104.51
158.167
250.052
439.763
598.255
229.979
165.636
110.637
63.8751
37.9397
22.929
13.8377
7.70748
7.3807
7.01246
3.00121
0.056791
-1.41906
-2.16934
-2.6406
-2.95358
-3.13377
-3.2091
-3.21371
-3.15727
-3.05319
-2.90259
-2.6982
-2.41969
-2.02803
-1.4336
-0.357492
39.1143
39.3027
39.7287
40.4753
41.7152
43.7714
47.2123
53.0531
63.1412
102.087
177.67
408.399
1916.69
201.614
81.5284
32.3092
15.6119
6.95033
-2.81606
-8.48342
13.5034
11.2703
5.03527
1.70669
0.452859
-0.153927
-0.602682
-0.945423
-1.18144
-1.3314
-1.41905
-1.45819
-1.44763
-1.38529
-1.26053
-1.05164
-0.723164
-0.203363
0.634845
34.0963
33.8999
33.3771
32.4998
31.2166
29.3822
26.6546
22.2324
14.0584
16.7145
1.83008
-151.556
-974.696
-1015.27
-296.841
-93.489
-42.1347
-24.2622
-16.3702
-10.5788
-2.88869
-8.00044
-7.89708
-7.21504
-6.29495
-5.17138
-4.13696
-3.30438
-2.63886
-2.09005
-1.62654
-1.23029
-0.888125
-0.587042
-0.308557
-0.0396985
0.230017
0.493226
0.696279
0.630817
29.4867
28.9272
27.5125
25.1209
21.5203
16.2179
8.3055
-3.91488
-23.7417
-46.1467
-115.415
-253.325
-455.247
-480.082
-301.512
-162.844
-93.1174
-57.2128
-37.1743
-24.2899
-14.8444
-9.44279
-6.09101
-3.52346
-1.81712
-0.71771
0.0483382
0.59071
0.961737
1.20986
1.37756
1.49215
1.57074
1.62331
1.65993
1.68283
1.68256
1.62571
1.42756
0.891662
25.6735
24.8094
22.6695
19.0645
13.6649
5.8286
-5.52287
-22.1615
-47.0818
-85.5194
-139.287
-206.939
-267.888
-274.487
-219.787
-151.783
-101.298
-69.3155
-48.544
-34.0308
-23.7508
-17.0675
-12.3582
-8.96588
-6.59907
-4.90579
-3.59777
-2.54852
-1.70819
-1.03589
-0.49128
-0.0453927
0.320828
0.615518
0.846459
1.01183
1.09767
1.07097
0.875826
0.446098
22.964
21.8878
19.2429
14.8183
8.25688
-1.09624
-14.2227
-32.4593
-57.4793
-90.9691
-132.841
-178.211
-213.508
-219.596
-190.835
-145.633
-105.062
-75.7216
-55.1128
-40.0124
-28.7538
-20.5058
-14.363
-9.8393
-6.5425
-4.13114
-2.33886
-0.994494
0.00891013
0.75062
1.29498
1.69026
1.96979
2.15344
2.2526
2.26755
2.18444
1.96951
1.56257
0.853019
21.5618
20.3761
17.4747
12.6431
5.52479
-4.51015
-18.3341
-36.9752
-61.402
-91.9638
-127.152
-161.925
-187.148
-192.372
-173.85
-140.498
-106.187
-78.5776
-58.0636
-42.6868
-31.0106
-22.2585
-15.8
-11.0782
-7.64403
-5.14874
-3.31846
-1.95458
-0.926962
-0.148664
0.442687
0.891923
1.22885
1.46958
1.62035
1.67851
1.63013
1.44548
1.08525
0.512943
57.6728
58.8133
61.545
65.9196
71.9968
79.9233
89.8264
101.634
114.874
128.373
139.93
146.2
143.989
132.525
114.634
95.1563
77.2931
61.9966
49.2595
38.8876
30.6242
24.1132
19.0194
15.0992
12.1079
9.79752
7.99848
6.61068
5.55343
4.75055
4.13813
3.66835
3.30379
3.01181
2.76058
2.51752
2.24609
1.90152
1.42845
0.766076
56.624
57.7432
60.4173
64.7221
70.7692
78.7918
89.0608
101.728
116.615
132.819
148.097
157.54
155.315
140.399
118.121
95.7418
76.3794
60.3057
47.2328
36.8529
28.793
22.3922
17.3926
13.7268
11.0346
8.95163
7.31089
6.03848
5.06283
4.31234
3.73192
3.28168
2.9299
2.64765
2.40825
2.18391
1.94186
1.63842
1.21697
0.621721
54.5622
55.6205
58.1487
62.2617
68.1607
76.2363
87.0379
101.198
119.257
141.117
163.981
180.7
178.839
155.908
125.127
97.7104
75.4271
57.7621
44.0312
33.6317
26.1337
19.9323
14.8819
11.4132
8.95423
7.06217
5.62225
4.55977
3.77614
3.1915
2.75632
2.4364
2.2033
2.03149
1.90167
1.79319
1.68018
1.51829
1.2283
0.666495
51.5491
52.4882
54.7359
58.4464
63.917
71.7218
82.7809
98.4909
120.927
153.029
186.388
222.571
225.401
187.438
142.135
107.92
79.9359
58.7573
43.2064
31.8487
19.4319
13.8435
10.7766
8.89207
6.96641
5.19286
3.83597
2.84794
2.10588
1.53695
1.10512
0.787621
0.559584
0.399084
0.298718
0.250359
0.243736
0.246974
0.176957
-0.172299
47.7065
48.4514
50.2399
53.2404
57.8021
64.6093
74.8566
90.5983
115.407
156.671
224.47
300.664
318.79
217.918
146.367
105.694
71.102
47.8926
32.5394
22.4288
15.1911
-2.98487
-1.0641
1.31892
1.34775
0.757048
0.291002
-0.0639753
-0.369963
-0.626718
-0.829515
-0.972783
-1.06896
-1.12215
-1.12172
-1.05327
-0.894601
-0.636793
-0.348626
-0.433
43.2389
43.7074
44.8405
46.7728
49.8106
54.5659
62.1709
74.7915
96.8171
147.668
235.542
417.421
565.553
203.33
152.036
104.438
59.0297
34.1091
19.7405
10.7375
4.19657
-4.90941
-1.90502
-1.9799
-2.9813
-3.55819
-3.82083
-4.01756
-4.19851
-4.34317
-4.44333
-4.5136
-4.54084
-4.52166
-4.43596
-4.2486
-3.89752
-3.27287
-2.18551
-0.357113
38.4035
38.5555
38.8749
39.4324
40.3852
42.0238
44.8668
49.8823
58.9133
96.2587
170.523
402.856
1867.67
193.577
82.1998
28.381
11.1119
2.27472
-6.95321
-14.741
14.6252
11.4807
4.65812
0.836827
-1.00658
-2.1439
-2.9985
-3.64109
-4.098
-4.40942
-4.6043
-4.71506
-4.7495
-4.68793
-4.50535
-4.14462
-3.50257
-2.39688
-0.546091
33.6025
33.3945
32.832
31.8871
30.5166
28.5893
25.81
21.4936
13.895
16.9286
5.02605
-133.318
-911.695
-976.201
-272.406
-82.768
-39.0172
-24.5222
-17.9251
-12.3886
-3.832
-7.025
-7.25651
-6.8928
-6.16934
-5.28182
-4.46251
-3.79704
-3.26737
-2.83884
-2.48629
-2.18073
-1.92966
-1.70683
-1.47752
-1.21348
-0.878761
-0.43879
0.0935772
0.459742
29.2008
28.6511
27.2614
24.9173
21.4143
16.3147
8.81375
-2.58704
-20.8103
-41.5065
-105.003
-232.555
-421.561
-445.017
-276.113
-148.251
-85.6293
-53.8396
-36.0086
-24.3621
-15.7906
-11.3802
-7.18028
-4.01407
-2.27398
-1.35799
-0.782133
-0.398698
-0.160755
-0.0217638
0.0611202
0.115275
0.151709
0.184753
0.229871
0.297011
0.390417
0.499105
0.559913
0.39505
25.562
24.7276
22.6627
19.197
14.0383
6.61575
-4.02895
-19.4666
-42.3645
-77.4334
-126.378
-187.958
-243.461
-249.409
-199.669
-138.24
-93.1064
-64.6457
-46.0668
-33.0029
-23.7914
-17.913
-12.8476
-9.12919
-6.75685
-5.17158
-3.96083
-2.98716
-2.21124
-1.59504
-1.09813
-0.690898
-0.356067
-0.0813926
0.146278
0.330326
0.46574
0.531719
0.480167
0.240457
22.9783
21.9446
19.4095
15.1842
8.95278
0.131228
-12.1531
-29.0809
-52.1308
-82.792
-120.952
-162.175
-194.251
-199.8
-173.775
-133.037
-96.6619
-70.3901
-51.8449
-38.1675
-27.9372
-20.3958
-14.5212
-10.078
-6.86057
-4.54416
-2.83917
-1.569
-0.629511
0.0571937
0.555747
0.91516
1.16909
1.33927
1.44081
1.4769
1.43854
1.30088
1.01612
0.507492
21.6453
20.5066
17.7327
13.1303
6.38406
-3.06941
-16.0054
-33.3239
-55.8652
-83.9018
-116.024
-147.654
-170.556
-175.34
-158.676
-128.69
-97.8708
-73.0458
-54.5211
-40.5509
-29.8853
-21.8357
-15.7896
-11.2489
-7.8984
-5.46837
-3.69737
-2.38294
-1.39566
-0.651439
-0.0893434
0.335594
0.653792
0.883829
1.03531
1.10798
1.09116
0.962966
0.693701
0.268584
55.8932
56.9097
59.3297
63.1869
68.5161
75.4216
83.9806
94.0865
105.282
116.511
125.861
130.498
127.841
117.3
101.42
84.3413
68.7226
55.3198
44.1099
34.9381
27.6095
21.8304
17.2753
13.7012
10.933
8.79067
7.12809
5.84907
4.87107
4.12351
3.55076
3.11052
2.76931
2.50015
2.27602
2.07219
1.85762
1.5969
1.24327
0.729266
54.8858
55.882
58.2446
62.0272
67.3096
74.2685
83.1001
93.8835
106.404
119.827
132.226
139.308
136.629
123.202
103.731
84.3539
67.5762
53.5849
42.1493
33.0449
26.0091
20.4436
16.0314
12.6443
10.0766
8.0774
6.50157
5.28376
4.34849
3.6279
3.07145
2.64156
2.3102
2.05059
1.84351
1.66599
1.49437
1.29514
1.02091
0.597718
52.9097
53.8477
56.0676
59.6563
64.77
71.7169
80.9244
92.8699
107.935
125.953
144.518
157.65
154.9
134.696
108.33
84.9673
65.918
50.74
38.8793
29.9723
23.9757
18.8426
14.0722
10.609
8.23459
6.4758
5.13072
4.1111
3.3462
2.76727
2.3268
1.99466
1.75037
1.57202
1.44726
1.36444
1.31222
1.26287
1.15034
0.789349
50.0293
50.8547
52.8077
56.0081
60.6943
67.3277
76.6433
89.7484
108.296
134.653
164.758
194.906
195.991
162.257
123.407
93.9529
69.66
51.3763
37.9343
28.319
19.3761
16.8319
11.6254
7.74419
5.1293
3.24007
1.89372
0.954482
0.285833
-0.20579
-0.567659
-0.822282
-0.987305
-1.08465
-1.11275
-1.06301
-0.923714
-0.689158
-0.389879
-0.21369
46.3648
47.0113
48.5368
51.0742
54.908
60.5949
69.0994
82.0841
102.472
139.006
196.537
261.772
275.566
186.023
127.472
91.2978
60.4737
40.3102
27.1058
18.8516
15.7598
7.54398
5.48342
3.84279
2.16585
0.747095
-0.30066
-1.06054
-1.6386
-2.09438
-2.45481
-2.71962
-2.90646
-3.03024
-3.07195
-2.9906
-2.7344
-2.22014
-1.39005
-0.556102
42.1137
42.5108
43.4346
44.9943
47.4417
51.2736
57.4065
67.6173
85.547
130.531
209.163
373.101
506.453
170.359
149.966
92.7373
48.7752
25.9867
13.3578
5.52027
-3.6775
-31.9017
-28.7215
-26.3119
-25.0364
-23.7551
-22.5574
-21.6018
-20.8416
-20.1892
-19.6019
-19.0763
-18.5724
-18.0445
-17.4571
-16.7491
-15.7998
-14.3598
-11.8699
-6.91873
37.5459
37.6413
37.824
38.1405
38.7171
39.7798
41.7401
45.3831
52.2625
85.3684
153.267
372.942
1786.39
265.503
69.6936
16.7906
0.0587431
-7.40257
-12.9142
-18.0629
-1.48054
-4.69864
-9.41216
-11.7003
-12.5987
-13.0524
-13.3567
-13.5377
-13.596
-13.5591
-13.4675
-13.2921
-13.0381
-12.6868
-12.1793
-11.4041
-10.1271
-7.89646
-3.98139
32.9995
32.7731
32.1582
31.1242
29.6288
27.5491
24.6205
20.2557
13.0244
15.6076
5.78471
-117.484
-837.113
-867.673
-235.618
-73.9077
-39.2506
-28.0551
-22.4663
-17.1673
-11.5425
-21.31
-17.8695
-14.0754
-11.7721
-10.19
-8.99377
-8.10553
-7.44936
-6.95075
-6.5586
-6.22943
-5.94942
-5.68451
-5.39343
-5.02511
-4.50736
-3.72592
-2.55059
-1.02548
28.8441
28.3081
26.9446
24.6537
21.2603
16.3894
9.35782
-1.0852
-17.3616
-35.7511
-91.1135
-202.498
-368.158
-386.083
-238.09
-129.247
-76.9585
-50.3351
-35.1112
-25.2597
-19.4981
-18.7837
-12.6211
-7.57683
-5.0213
-3.71736
-2.87699
-2.29614
-1.91271
-1.66377
-1.49468
-1.37248
-1.27849
-1.18558
-1.07296
-0.917465
-0.691864
-0.371307
0.0239729
0.280012
25.4146
24.6165
22.6427
19.3444
14.477
7.5554
-2.22641
-16.1741
-36.4963
-67.0996
-109.31
-161.944
-208.929
-213.999
-172.266
-120.793
-82.9431
-58.8768
-42.9381
-31.6812
-23.9959
-19.6135
-14.5967
-10.5412
-7.92152
-6.1651
-4.82108
-3.74659
-2.89944
-2.23494
-1.70712
-1.28048
-0.935539
-0.648453
-0.403104
-0.186813
0.00729948
0.173699
0.273806
0.195524
22.9819
22.0002
19.5998
15.6181
9.79071
1.62313
-9.61742
-24.9068
-45.4459
-72.411
-105.576
-141.021
-168.478
-173.26
-151.298
-116.968
-86.1731
-63.6992
-47.6231
-35.6586
-26.721
-20.2005
-14.9725
-10.7758
-7.61505
-5.2968
-3.5704
-2.26945
-1.29499
-0.572693
-0.0396438
0.352631
0.638262
0.842612
0.98267
1.06658
1.09205
1.04123
0.869681
0.474603
21.7292
20.6496
18.0312
13.7087
7.41768
-1.31819
-13.1475
-28.8082
-48.9584
-73.742
-101.847
-129.279
-149.03
-153.207
-139.101
-113.695
-87.4334
-66.0798
-49.962
-37.6853
-28.2574
-21.1226
-15.7061
-11.5026
-8.29681
-5.91845
-4.15573
-2.82745
-1.81538
-1.04259
-0.452281
-0.00109176
0.341738
0.596894
0.776206
0.883374
0.911909
0.843732
0.64855
0.282767
53.9347
54.812
56.8831
60.1624
64.6573
70.4221
77.4747
85.6632
94.5341
103.148
109.919
112.681
109.5
100.092
86.6231
72.3388
59.2894
48.0305
38.5182
30.6246
24.205
19.0761
15.0396
11.8912
9.43986
7.51506
6.00103
4.83187
3.92879
3.22996
2.69058
2.27542
1.95046
1.69839
1.49132
1.31663
1.14176
0.945995
0.703282
0.411468
52.9727
53.8306
55.844
59.0433
63.4717
69.2396
76.4535
85.0975
94.8865
105.012
113.77
118.215
114.901
103.349
87.3429
71.5468
57.7985
46.1999
36.5694
28.7183
22.4142
17.4544
13.588
10.6282
8.34458
6.5309
5.07236
3.97526
3.12448
2.4583
1.94094
1.5394
1.23191
0.984663
0.798598
0.650018
0.525609
0.405815
0.278935
0.154597
51.0897
51.8928
53.767
56.7691
61.0036
66.6806
74.0781
83.4694
94.9918
108.287
121.398
129.619
125.842
109.162
88.2639
69.9524
54.9347
42.72
32.9113
25.1711
19.0195
14.5676
10.9019
8.14984
6.06921
4.4678
3.24334
2.27574
1.55328
1.01925
0.619746
0.324792
0.116976
-0.0159506
-0.0964059
-0.124693
-0.101541
-0.0294637
0.0735002
0.164183
48.3532
49.0526
50.6744
53.303
57.1069
62.4119
69.7185
79.7419
93.4802
112.16
136.843
157.867
156.677
129.556
99.0051
75.7641
56.5658
41.9746
30.9918
22.8071
11.7879
9.06615
5.93966
3.47056
1.37519
-0.307001
-1.54758
-2.42428
-3.0363
-3.47334
-3.78237
-3.98274
-4.09383
-4.13671
-4.10544
-3.97786
-3.73073
-3.31227
-2.64105
-1.53805
44.8861
45.4202
46.65
48.6669
51.6764
56.0759
62.5272
72.1398
86.7998
115.925
156.828
202.331
207.472
137.348
95.1616
67.7851
44.1177
28.5241
18.1122
11.5694
9.83724
-2.06181
-3.26613
-4.67931
-5.99641
-7.13136
-8.05823
-8.63538
-8.95061
-9.14196
-9.25845
-9.31764
-9.30169
-9.20938
-9.06222
-8.78299
-8.29498
-7.44895
-5.99935
-3.57961
40.8782
41.1863
41.8741
43.0139
44.7871
47.5385
51.8892
59.0142
71.2426
106.064
166.086
288.968
385.139
102.977
109.656
54.9221
19.5654
2.14021
-7.25463
-12.367
-11.199
-25.1949
-26.945
-31.0564
-32.4227
-32.1376
-31.3209
-30.5044
-29.7432
-28.9745
-28.1974
-27.4077
-26.642
-25.8814
-25.0424
-24.0575
-22.7788
-20.8594
-17.4923
-10.6975
36.5899
36.6234
36.6521
36.6967
36.8384
37.2163
38.0725
39.8593
43.4593
68.4452
120.355
300.75
1595.46
251.84
-17.9159
-59.689
-67.8552
-68.9871
-67.1158
-62.2967
-35.9842
-35.2051
-37.0696
-37.0789
-36.0613
-34.9118
-33.8756
-32.9074
-31.9575
-31.0222
-30.127
-29.236
-28.3005
-27.3271
-26.2188
-24.8183
-22.7515
-19.1425
-11.6856
32.3439
32.0786
31.402
30.2652
28.6205
26.3447
23.1825
18.6141
11.498
12.4298
3.48288
-92.3318
-665.161
-660.146
-190.329
-76.3632
-50.8827
-41.0983
-35.3743
-29.8484
-26.8098
-30.0953
-26.5734
-22.7695
-20.3774
-18.6432
-17.2936
-16.2457
-15.4113
-14.7208
-14.1279
-13.6048
-13.1405
-12.658
-12.1463
-11.5515
-10.7723
-9.62245
-7.75586
-4.48067
28.4347
27.9186
26.5829
24.3476
21.0707
16.4399
9.90131
0.495981
-13.4673
-29.2124
-73.6248
-158.959
-282.802
-296.713
-187.745
-106.986
-67.2758
-46.1409
-33.5652
-25.3799
-22.899
-18.5328
-14.9312
-11.8126
-9.84162
-8.52446
-7.52312
-6.74002
-6.13427
-5.66285
-5.28593
-4.97426
-4.71232
-4.46633
-4.21188
-3.91938
-3.54478
-3.02653
-2.28361
-1.22724
25.2403
24.4846
22.6084
19.4939
14.9473
8.57666
-0.25257
-12.5324
-29.8793
-55.1344
-88.9315
-129.578
-164.64
-169.048
-138.54
-99.8184
-70.4757
-51.1822
-37.9362
-28.3165
-21.5642
-17.8507
-14.3885
-11.4287
-9.20198
-7.53027
-6.21283
-5.15394
-4.306
-3.62578
-3.07455
-2.62114
-2.24656
-1.92569
-1.64095
-1.37671
-1.12122
-0.865682
-0.611975
-0.369806
22.9725
22.0489
19.7983
16.0874
10.7096
3.27062
-6.80279
-20.2452
-37.9055
-60.5266
-87.6744
-115.989
-137.613
-141.386
-124.668
-98.3457
-74.0466
-55.7515
-42.2909
-32.0562
-24.2729
-18.5803
-14.2063
-10.7276
-8.04045
-6.00773
-4.46161
-3.27577
-2.36573
-1.66941
-1.13641
-0.727985
-0.415444
-0.176501
0.00418965
0.13513
0.215639
0.235021
0.171452
0.00356472
21.8066
20.7937
18.349
14.3383
8.55513
0.621761
-9.96657
-23.7575
-41.1848
-62.2141
-85.6183
-108.072
-124.023
-127.429
-116.436
-96.4179
-75.3854
-57.8756
-44.3376
-33.8263
-25.631
-19.3711
-14.6418
-11.0106
-8.22455
-6.10961
-4.50508
-3.27672
-2.32967
-1.59809
-1.03273
-0.595182
-0.257583
-0.00112957
0.185787
0.307672
0.359089
0.325469
0.190666
-0.0346288
51.9376
52.6685
54.3811
57.0683
60.7103
65.3137
70.8382
77.0914
83.6296
89.6409
93.8756
94.7934
91.1628
83.0037
72.0199
60.5531
50.0671
40.9407
33.1216
26.5217
21.0576
16.6339
13.1489
10.4801
8.41786
6.78283
5.48313
4.46903
3.68488
3.07908
2.61132
2.25009
1.96937
1.74827
1.56737
1.40904
1.24997
1.06685
0.831869
0.516875
51.0223
51.7343
53.3897
55.992
59.5484
64.1058
69.6825
76.1717
83.2268
90.0863
95.3623
96.9761
92.9749
83.3872
70.9826
58.8431
48.1889
39.0431
31.2786
24.7903
19.4442
15.1247
11.7835
9.344
7.49882
6.03432
4.86798
3.95954
3.24894
2.6882
2.24476
1.8943
1.61816
1.39797
1.22229
1.07813
0.949932
0.817219
0.652199
0.417304
49.235
49.8941
51.4151
53.8185
57.1583
61.5488
67.1199
73.9449
81.9205
90.511
98.1704
101.563
96.4219
83.0147
67.6076
54.4628
43.602
34.3783
26.6236
20.2095
14.9193
10.7913
8.25406
6.48829
4.97007
3.72005
2.78375
2.10136
1.60666
1.24555
0.981704
0.79265
0.663508
0.580759
0.53502
0.525323
0.549802
0.596936
0.630517
0.535435
46.6464
47.2076
48.4926
50.5407
53.4499
57.4123
62.6959
69.6282
78.5622
89.7314
101.197
108.585
101.168
80.0736
60.9478
47.535
36.8373
28.0689
20.8857
14.7187
8.30609
2.10157
2.28949
2.77156
2.17193
1.26871
0.503162
-0.0864974
-0.548448
-0.915606
-1.20032
-1.40851
-1.54646
-1.62288
-1.6338
-1.56267
-1.39078
-1.09137
-0.65304
-0.138011
43.3797
43.7922
44.719
46.211
48.3849
51.4814
55.8544
62.0305
70.7184
90.8562
111.85
131.53
123.928
81.8176
56.6448
42.6276
28.4326
18.1769
11.05
5.78251
0.374155
-13.8266
-10.9952
-8.00781
-6.68327
-6.01515
-5.55844
-5.20908
-4.95621
-4.7885
-4.67915
-4.60065
-4.53309
-4.46005
-4.34544
-4.13956
-3.77674
-3.15388
-2.1673
-0.877375
39.6189
39.8314
40.277
40.9928
42.0835
43.7397
46.2742
50.2098
56.3818
78.3737
105.407
148.082
165.391
28.3939
20.2658
3.61057
-5.05408
-9.06193
-12.2722
-14.9621
-21.669
-14.3879
-15.4812
-17.3013
-17.7984
-17.6152
-17.2356
-16.8321
-16.428
-16.0168
-15.6034
-15.1781
-14.7657
-14.3571
-13.8875
-13.2927
-12.4594
-11.1533
-8.93869
-5.10176
35.6101
35.5829
35.4533
35.2225
34.9256
34.61
34.333
34.1675
34.1687
48.3901
59.943
130.422
173.577
-684.565
-123.962
-85.6729
-62.3917
-58.5398
-55.6724
-53.4998
-67.6459
-40.67
-38.449
-36.2144
-34.1809
-32.207
-30.4612
-28.9746
-27.6764
-26.5107
-25.4516
-24.485
-23.5902
-22.7074
-21.8018
-20.8065
-19.6029
-17.9054
-15.0874
-9.54662
31.6474
31.365
30.6262
29.3861
27.5949
25.1216
21.7049
16.853
9.60972
7.98053
-14.0349
-81.7862
-306.179
-259.457
-106.205
-56.2964
-34.877
-26.0489
-21.3816
-17.3323
-9.46837
5.71746
2.05999
-1.88042
-3.54007
-4.31089
-4.79845
-5.12284
-5.31841
-5.42042
-5.46043
-5.46533
-5.43147
-5.33489
-5.16129
-4.88733
-4.44659
-3.71588
-2.53917
-0.970861
28.0321
27.5148
26.2072
24.0338
20.881
16.494
10.4269
1.91151
-10.4903
-29.6725
-53.8017
-108.344
-178.283
-189.125
-128.98
-80.1678
-52.9938
-37.0648
-27.1262
-19.8511
-10.1767
-1.58131
-2.76036
-4.22194
-4.19568
-3.6874
-3.19458
-2.77634
-2.4219
-2.12886
-1.89264
-1.7022
-1.54836
-1.41625
-1.27417
-1.09993
-0.868969
-0.550512
-0.159656
0.10218
25.0577
24.3397
22.5665
19.645
15.4306
9.62455
1.75875
-8.86214
-23.2384
-42.6571
-67.6564
-95.6619
-118.602
-122.22
-103.599
-77.9851
-57.0279
-42.2984
-31.6777
-23.375
-16.3253
-11.5399
-8.86569
-6.91851
-5.15579
-3.69525
-2.58812
-1.76062
-1.13479
-0.659645
-0.299096
-0.0246446
0.182474
0.3424
0.476075
0.593547
0.697298
0.774843
0.768642
0.497075
22.9537
22.0917
19.9958
16.5669
11.6551
4.9658
-3.91451
-15.4771
-30.2022
-48.312
-69.1156
-90.1036
-105.575
-108.63
-97.606
-79.2417
-61.4201
-47.2397
-36.3615
-27.7622
-20.8353
-15.4522
-11.3225
-8.26534
-5.95098
-4.17011
-2.80623
-1.76403
-0.965931
-0.354991
0.110178
0.461389
0.722644
0.912694
1.0446
1.12426
1.14598
1.08695
0.894701
0.45887
21.8735
20.932
18.6692
14.9839
9.72799
2.62145
-6.69599
-18.5767
-33.2228
-50.4023
-68.9661
-86.3293
-98.4145
-101.131
-93.3706
-78.779
-62.907
-49.1768
-38.1758
-29.3827
-22.3149
-16.7261
-12.4178
-9.15633
-6.6583
-4.71292
-3.19781
-2.02543
-1.12203
-0.427921
0.102654
0.504513
0.804011
1.01956
1.16206
1.23518
1.2303
1.12465
0.874747
0.406831
50.0396
50.6281
51.9974
54.1259
56.9658
60.4852
64.5991
69.0927
73.5546
77.3169
79.4586
78.9745
75.1993
68.3543
59.6765
50.7293
42.4904
35.2308
28.9266
23.5378
19.0343
15.3728
12.4828
10.2415
8.46894
7.02946
5.86036
4.92545
4.18555
3.60032
3.13614
2.76611
2.46761
2.22047
2.00602
1.80562
1.59618
1.35021
1.035
0.614333
49.1692
49.7394
51.0519
53.0962
55.8338
59.2682
63.3468
67.9022
72.5677
76.6789
79.2054
78.8718
74.7291
67.1015
57.7863
48.6714
40.5438
33.4317
27.2773
22.0619
17.747
14.2894
11.6427
9.63337
8.03243
6.71693
5.64351
4.77819
4.08078
3.51503
3.05395
2.67686
2.3665
2.10664
1.88247
1.67989
1.4792
1.25362
0.965451
0.567905
47.4733
47.9931
49.175
51.0197
53.5292
56.7402
60.6678
65.2412
70.2033
74.9393
78.2233
78.1616
72.9833
63.3897
52.8492
43.7672
36.11
29.3476
23.4627
18.5219
14.5071
11.4763
9.48774
7.9266
6.49224
5.25357
4.27693
3.53036
2.95646
2.51182
2.16793
1.90349
1.70177
1.54871
1.43275
1.34488
1.27147
1.18669
1.03667
0.704654
45.0255
45.4554
46.4182
47.9245
50.0139
52.7648
56.2688
60.5802
65.6293
70.9934
75.3267
75.7569
68.7197
55.6893