/*--------------------------------*- C++ -*----------------------------------*\
| =========                 |                                                 |
| \\      /  F ield         | OpenFOAM: The Open Source CFD Toolbox           |
|  \\    /   O peration     | Version:  2306                                  |
|   \\  /    A nd           | Website:  www.openfoam.com                      |
|    \\/     M anipulation  |                                                 |
\*---------------------------------------------------------------------------*/
FoamFile
{
    version     2.0;
    format      ascii;
    arch        "LSB;label=32;scalar=64";
    class       surfaceScalarField;
    location    "1.75";
    object      phi;
}
// * * * * * * * * * * * * * * * * * * * * * * * * * * * * * * * * * * * * * //

dimensions      [0 3 -1 0 0 0 0];

oriented        oriented;

internalField   nonuniform List<scalar> 
338621
(
24.9948
0.00246408
0.00142692
24.9868
0.00503243
0.00296067
24.9743
0.00788663
0.00471368
24.9566
0.0109112
0.00681545
24.9329
0.0142283
0.00956481
24.8996
0.0202529
0.0131157
24.8524
0.0297664
0.0175661
24.7889
0.0403679
0.023212
24.7265
0.0321159
0.0302723
24.683
0.00477237
0.0386517
24.6546
-0.019923
0.0482207
24.5807
0.0150671
0.0585473
24.6094
-0.0983347
0.0693569
24.7399
-0.210404
0.0796156
24.7819
-0.130682
0.0885605
24.8145
-0.128384
0.0956557
24.8439
-0.130256
0.100858
24.8682
-0.128847
0.104675
24.889
-0.128027
0.107308
24.917
-0.137172
0.109184
24.9483
-0.141542
0.110354
24.9723
-0.13524
0.111274
24.9908
-0.130547
0.112108
25.0058
-0.127774
0.11278
25.0182
-0.12593
0.113477
25.0284
-0.124397
0.11423
25.037
-0.1235
0.114974
25.044
-0.122676
0.11569
25.0496
-0.122063
0.116455
25.0543
-0.121899
0.117215
25.0582
-0.121904
0.117921
25.0618
-0.122059
0.118514
25.065
-0.12226
0.119071
25.0679
-0.122475
0.11954
25.0708
-0.122695
0.119855
25.0739
-0.123202
0.120026
25.0774
-0.123484
0.119998
25.0813
-0.123724
0.119846
25.0857
-0.123974
0.119527
-0.124514
0.118791
24.9948
0.00489675
0.00139797
24.9868
0.0101909
0.00286296
24.9738
0.0162926
0.00458341
24.9561
0.0220721
0.00665133
24.9324
0.0286771
0.00935991
24.9023
0.0375889
0.0127848
24.8661
0.0488023
0.0172643
24.8198
0.0637369
0.0229772
24.7547
0.0670171
0.030191
24.6796
0.0408594
0.0389493
24.6365
-0.0261799
0.0492535
24.6232
-0.0321953
0.0603172
24.6618
-0.210057
0.0727938
24.7458
-0.379142
0.0844155
24.8263
-0.305478
0.0941959
24.8949
-0.2988
0.101722
24.9478
-0.290227
0.107133
24.991
-0.282919
0.110979
25.0373
-0.287931
0.11366
25.0728
-0.28802
0.115439
25.0945
-0.279934
0.116669
25.1102
-0.268507
0.11758
25.1211
-0.25988
0.118488
25.1295
-0.255463
0.119259
25.1357
-0.252085
0.119982
25.1403
-0.249622
0.120663
25.143
-0.247541
0.121376
25.1448
-0.246603
0.122072
25.1462
-0.246179
0.12278
25.1467
-0.245893
0.123476
25.1468
-0.246156
0.124132
25.1464
-0.246393
0.124721
25.1462
-0.247275
0.12524
25.146
-0.247957
0.125651
25.1461
-0.248655
0.125924
25.1464
-0.2496
0.126085
25.1472
-0.250281
0.126029
25.1485
-0.25094
0.125861
25.1509
-0.251813
0.125486
-0.252053
0.124754
24.9951
0.00697805
0.00132607
24.9872
0.0154241
0.00270958
24.975
0.0242766
0.00430215
24.9567
0.0341241
0.00633188
24.9319
0.0445792
0.00892641
24.9002
0.057049
0.0122765
24.8598
0.0725478
0.016767
24.81
0.0909563
0.0225748
24.7404
0.106446
0.0301633
24.6418
0.0996464
0.0398223
24.5647
0.00540132
0.051639
-0.00611941
0.00541714
-0.00547069
24.6611
-0.0388686
0.0656467
-0.0587025
-0.0383483
-0.0585118
24.5532
-0.0115459
0.0791898
-0.0959896
0.0206251
-0.0948538
24.7258
-0.183013
0.0926601
-0.124996
-0.213187
-0.123464
24.8193
-0.130217
0.103138
-0.123053
-0.128172
-0.120769
24.8804
-0.119718
0.110835
-0.117939
-0.117234
-0.115845
24.9351
-0.116173
0.116209
-0.116486
-0.114301
-0.11398
25.0019
-0.118904
0.119948
-0.117881
-0.116904
-0.115863
25.0463
-0.115388
0.122522
-0.113944
-0.113414
-0.11201
25.0736
-0.11146
0.124124
-0.110289
-0.109453
-0.108226
25.0935
-0.424992
0.125174
25.1091
-0.410122
0.12604
25.119
-0.396898
0.127073
25.1265
-0.391044
0.128115
25.1322
-0.386878
0.129096
25.136
-0.383375
0.129954
25.1381
-0.380305
0.130704
25.1393
-0.379146
0.131372
25.1391
-0.377944
0.131972
25.1387
-0.378056
0.132514
25.1377
-0.378088
0.132984
25.1366
-0.378669
0.13337
25.1351
-0.379446
0.133601
25.1339
-0.380538
0.133803
25.1326
-0.381128
0.133781
25.1315
-0.382184
0.13365
25.1312
-0.383197
0.133288
25.1314
-0.383965
0.132796
25.1321
-0.384614
0.132105
-0.385056
0.131134
24.9955
0.00931457
0.00121491
24.9885
0.0199068
0.00247953
24.9766
0.0323884
0.0039132
24.9594
0.0454743
0.00581598
24.9345
0.0612908
0.00821742
24.8998
0.0804782
0.0114113
24.8538
0.102834
0.0157426
24.7951
0.12815
0.021523
24.7278
0.144401
0.0293522
6.1406
0.0371026
0.0398369
0.0543736
0.0382814
0.0542743
6.16274
6.13962
6.1607
6.12291
0.0172771
0.00580661
-6.1097
6.09738
-0.0341979
0.00762594
-6.10116
6.1225
-0.0424848
0.00957383
-6.11468
6.14153
-0.221542
0.0116482
-6.1603
6.17465
-0.15783
0.0132522
-6.18801
6.1988
-0.144834
0.01433
-6.21019
6.22457
-0.145673
0.015127
-6.23663
6.24397
-0.141925
0.0156877
-6.24996
6.2554
-0.136875
0.0160509
-6.2601
6.26444
-0.132114
0.0163094
25.1048
-0.145493
0.135362
-0.146214
-0.144194
-0.145678
-6.26838
-6.27307
-6.26892
-6.27321
25.1133
-0.555242
0.136552
25.1181
-0.53926
0.13762
25.1221
-0.533589
0.138532
25.1233
-0.527625
0.139476
25.1223
-0.522666
0.140371
25.1202
-0.519441
0.141168
25.1165
-0.517276
0.141864
25.1116
-0.51544
0.142452
25.1056
-0.515049
0.142919
25.0992
-0.51493
0.143237
25.0923
-0.515117
0.143377
25.085
-0.515375
0.143272
25.0777
-0.516329
0.143058
25.0707
-0.516622
0.142522
25.0637
-0.517013
0.141799
25.0572
-0.517443
0.140783
25.0511
-0.517471
0.139532
25.0466
-0.518197
0.138094
-0.517679
0.136445
24.9972
0.00994312
0.00106496
24.9911
0.0238302
0.00216919
24.9812
0.0389231
0.00341309
24.9656
0.0560497
0.00508393
24.9425
0.0772071
0.007197
24.9088
0.104147
0.0100253
24.8586
0.139227
0.0138632
24.784
0.183596
0.0191673
6.17076
0.233801
0.0264125
6.1635
6.17043
6.16348
6.15458
0.0493331
0.00394608
6.12882
0.00551781
-6.15696
0.0202399
0.0119689
0.0117573
0.0204163
-0.0417535
-6.07575
6.04118
0.00749991
-0.00204086
0.00429886
0.00384657
-0.00179058
0.022723
-6.04031
6.05825
0.0098614
0.0291103
-0.0401004
-0.0403815
-0.0190839
0.0426107
-6.11039
6.13566
0.0125418
-0.0522737
-0.0669252
-0.10486
-0.0527138
0.238928
-6.16829
6.18053
0.013983
-0.0511384
-0.0550239
-0.0543257
-0.0515601
0.185818
-6.19242
6.206
0.0149548
-0.0515664
-0.0508305
-0.050693
-0.0516729
0.176235
-6.21968
6.23158
0.0156423
-0.0498
-0.0497605
-0.0496601
-0.0499262
0.171624
-6.24131
6.24868
0.0160696
-0.0471849
-0.0471148
-0.0469926
-0.0473265
0.165183
-6.25525
6.26009
0.0163623
-0.0447486
-0.0449239
-0.0448273
-0.0448541
0.158139
-6.26454
6.26712
0.0166323
-0.0426432
-0.0429869
-0.0429376
-0.0426926
0.152043
-6.27068
6.27292
-0.164959
0.0172285
25.0523
-0.662526
0.137584
-6.27342
-6.26731
-6.27389
-6.26804
25.0284
-0.654093
0.138706
25.0023
-0.646175
0.138766
24.9753
-0.639082
0.138436
24.9488
-0.634065
0.137859
24.9226
-0.630293
0.137049
24.8966
-0.627317
0.136027
24.8716
-0.625211
0.134818
24.8468
-0.623657
0.133415
24.8228
-0.622731
0.131809
24.7998
-0.622158
0.129984
24.7781
-0.621568
0.127901
24.7572
-0.621049
0.125673
24.7378
-0.620467
0.123202
24.7198
-0.619565
0.120557
24.7033
-0.618631
0.117729
24.6887
-0.617668
0.114731
24.6761
-0.61724
0.111637
-0.618074
0.108539
24.9998
0.00855636
0.000879939
24.9964
0.0254633
0.00178637
24.9888
0.0437471
0.00281271
24.977
0.0637911
0.00411877
24.9593
0.0890956
0.00583384
24.9321
0.123264
0.008077
24.8888
0.17141
0.0110596
24.8163
0.24091
0.0151971
6.17057
0.348074
0.0207257
6.17016
6.17054
6.17
-0.0654008
6.14487
0.0880019
0.00308896
-0.0197785
-1.52751
1.52234
0.0243721
0.000578783
-0.0196697
-1.50402
1.49184
0.0311144
0.000733322
-1.46805
0.0519746
1.47785
-0.062918
0.00114295
-1.52909
0.0846345
1.53775
-0.0945734
0.00128049
-1.53605
0.0616673
-0.0653703
0.0016364
1.53811
-1.54746
0.0599412
-0.0643783
0.0018733
1.55002
0.0574623
-1.55577
1.55723
-0.0608627
0.0019415
0.0532323
-1.56021
1.56079
-0.05562
0.00181067
0.0500996
-1.56159
1.56175
-0.0518237
0.00156821
0.0473131
-1.56139
1.56111
-0.0483723
0.00134156
-1.55476
0.179907
6.15985
-0.172962
0.0164146
-1.53994
-1.55351
-1.53501
23.8428
-0.747654
0.0685121
-6.10182
-5.80708
-6.10705
-5.8103
23.8531
-0.732191
0.0678752
23.8627
-0.722568
0.0667083
23.8731
-0.714611
0.0651527
23.8837
-0.708151
0.063482
23.8943
-0.702714
0.0618011
23.905
-0.698124
0.0601299
23.9156
-0.694241
0.0584621
23.9261
-0.690967
0.0567773
23.9364
-0.68812
0.0550497
23.9465
-0.685488
0.0532533
23.9566
-0.683024
0.0513482
23.9666
-0.680459
0.0493934
23.9765
-0.677681
0.0473332
23.9866
-0.674851
0.0451735
23.9969
-0.67176
0.0428943
24.0073
-0.668517
0.0404349
24.0175
-0.665148
0.0376985
-0.661106
0.034612
25.003
0.00464009
0.000679205
25.0036
0.023541
0.00135397
25.0008
0.0444703
0.00211843
24.9951
0.0664181
0.00301894
24.9864
0.0936355
0.0041764
24.973
0.131034
0.0056764
24.9535
0.183406
0.00752767
24.9226
0.261875
0.00988141
6.21351
0.38834
0.0126275
6.22162
6.21322
6.22137
-0.106382
6.19812
0.119959
0.00180919
-0.0395356
-1.54213
1.53597
0.0453826
0.000312378
-0.0826128
-1.50643
1.48782
0.100881
0.000333637
0.00433854
-0.0746396
0.0748156
-0.00453336
1.8779e-05
-0.0213888
0.000450437
0.0209008
2.97584e-06
3.45951e-05
-0.207961
0.0102368
-0.0219934
0.000108523
0.219609
-1.19222
0.0598428
-0.0790915
-0.000420468
1.21189
0.0537565
-1.25191
1.2599
-0.0620148
0.000267291
0.0509217
-1.28384
1.29166
-0.0595854
0.000842563
0.0463663
-1.31175
1.31819
-0.0536276
0.00081685
0.0431842
-1.33566
1.34257
-0.0504537
0.000359581
-1.38849
0.199906
5.84061
-0.217384
-0.0110244
-1.49568
-1.42546
-1.50247
24.1327
-0.674291
-0.121165
-5.88746
-6.17388
-5.85124
-6.17233
24.1687
-0.648589
-0.119591
24.199
-0.636114
-0.116784
24.2258
-0.627311
-0.114042
24.2491
-0.620204
-0.111249
24.2697
-0.614925
-0.108402
24.2885
-0.611244
-0.105661
24.3059
-0.608659
-0.102997
24.3223
-0.6069
-0.100442
24.3377
-0.605633
-0.0979703
24.3524
-0.604585
-0.0955894
24.3663
-0.60364
-0.093232
24.3794
-0.602563
-0.0910022
24.3918
-0.601232
-0.0888461
24.4033
-0.599523
-0.0868912
24.4144
-0.597626
-0.0852399
24.4252
-0.595246
-0.0840013
24.4356
-0.59221
-0.0834035
-0.587927
-0.0838759
25.0048
-0.000346113
0.000453131
25.0102
0.0172872
0.00090569
25.0152
0.0380527
0.00136968
25.0193
0.0604125
0.00188758
25.0214
0.0890881
0.00244076
25.0267
0.122608
0.0030874
25.0392
0.167238
0.0036784
25.0658
0.231303
0.00402264
6.27498
0.332207
0.00375405
6.2828
6.27528
6.28513
-0.111905
6.28288
0.103626
0.000391984
-0.0447384
-1.5782
1.57993
0.0429896
2.0923e-05
-0.0844627
-1.5986
1.61366
-0.00011947
0.0695246
-0.0260561
-1.71411
1.75336
-0.00121073
0.0566808
-0.0211969
-0.0261608
-0.0213031
0.10086
-1.71392
1.68402
-0.00077282
-0.0701842
0.103264
-1.60968
-0.00149635
1.59907
-0.0911549
0.0792133
-1.58451
-0.00175877
1.58158
-0.07452
0.0580393
-1.57686
1.57588
-0.0551957
-0.00186934
0.0584954
-1.574
1.57215
-0.0547637
-0.00188533
0.0524439
-1.57163
1.57095
-0.0498999
-0.00186232
0.0484043
-1.56995
1.56945
-0.046056
-0.00184986
-1.56719
0.180289
6.26344
-0.159883
-0.0162
-1.56671
-1.56693
-1.56682
25.0673
-0.541465
-0.128697
-6.2672
-6.26708
-6.26934
-6.26781
25.0692
-0.522048
-0.128415
25.0673
-0.506819
-0.127395
25.0645
-0.498093
-0.126434
25.062
-0.492107
-0.125611
25.06
-0.488025
-0.124838
25.0582
-0.485264
-0.124219
25.0564
-0.483209
-0.123693
25.0551
-0.48231
-0.12329
25.054
-0.481503
-0.122986
25.0529
-0.480671
-0.122808
25.0521
-0.480299
-0.122578
25.0516
-0.479562
-0.122452
25.0509
-0.478297
-0.122289
25.0509
-0.477278
-0.122206
25.0512
-0.475699
-0.122227
25.052
-0.473648
-0.122392
25.0535
-0.470874
-0.122799
-0.467626
-0.12338
25.0058
-0.00542942
0.000217983
25.0144
0.00825397
0.000460478
25.0275
0.0242248
0.00064835
25.0391
0.0480751
0.000780457
25.0547
0.0726356
0.000810425
25.0785
0.0981186
0.000636438
25.1169
0.128763
9.31673e-05
25.1807
0.168691
-0.00128609
6.32123
0.230643
-0.0039895
6.3194
6.32561
6.31999
-0.0887271
6.33749
0.0732794
-0.000813767
-0.0332368
6.41451
0.0876102
-0.00172902
-0.0344177
-0.0333772
-0.0340075
-6.36536
-0.0333049
6.5189
0.0750027
-0.00343859
-0.0260185
-0.0331467
-0.0259194
-6.47206
-0.00689002
-6.54973
6.51581
-0.00747909
-0.00609856
0.015586
-0.00710095
0.0459347
0.0463274
-6.53711
6.51466
-0.126323
-0.00927883
0.0401414
0.0371013
0.0345187
0.0559943
-6.44956
6.41154
-0.18047
-0.0117273
0.0565302
0.0583611
0.0593645
0.0572083
-6.37134
6.33906
-0.178243
-0.0133678
0.0559163
0.0561995
0.0545734
0.0473338
-6.32089
6.30963
-0.159678
-0.0145373
0.046377
0.0462072
0.0455397
0.0451766
-6.30095
6.29505
-0.158165
-0.0152648
0.0449063
0.0447551
0.044488
0.0419799
-6.2906
6.28521
-0.14466
-0.0156262
0.0414353
0.041473
0.0407882
0.0388359
-6.28097
6.27555
-0.131876
-0.0157785
0.0383224
0.0382891
0.0376273
0.142781
-6.27405
6.27225
-0.125051
-0.0159304
25.0701
-0.403088
-0.129291
-6.26984
-6.26997
-6.27011
-6.26919
25.0626
-0.385889
-0.128723
25.0589
-0.375099
-0.127962
25.0561
-0.368076
-0.127275
25.0542
-0.363562
-0.12665
25.0527
-0.360475
-0.126056
25.0516
-0.358654
-0.125518
25.051
-0.357566
-0.125055
25.0504
-0.356994
-0.124666
25.0499
-0.356702
-0.124337
25.0496
-0.356288
-0.124083
25.0495
-0.356345
-0.123826
25.0492
-0.355744
-0.123547
25.0497
-0.35551
-0.123323
25.0503
-0.354687
-0.123145
25.051
-0.353383
-0.123021
25.0526
-0.352234
-0.123018
25.0555
-0.350587
-0.12321
-0.348905
-0.123637
25.0065
-0.0105372
7.63964e-05
25.0165
-0.00188512
0.000109442
25.0256
0.0150471
5.01423e-05
25.0424
0.0313288
-0.000120461
25.0694
0.046152
-0.000540155
25.1032
0.0655301
-0.00134331
25.1512
0.0834481
-0.00276076
25.2183
0.106845
-0.00526247
25.328
0.130372
-0.00950755
25.4338
0.143537
-0.0163485
-0.0609846
-0.0565712
-0.0585942
-0.0569876
25.5822
0.129973
-0.0266411
-0.0602228
-0.0634973
-0.0613629
-0.0666445
25.7161
0.050298
-0.0412862
-0.040999
-0.026845
-0.0444746
-0.030376
25.5926
-0.162431
-0.0591849
0.0231286
0.126401
0.0218838
0.174065
25.4986
-0.245326
-0.0785049
0.0859659
0.119803
0.101697
0.11077
25.4289
-0.256298
-0.0947272
0.085716
0.151166
0.0343778
0.149647
25.3424
-0.359703
-0.106683
0.137846
0.140723
0.136244
0.138006
25.2579
-0.328185
-0.11421
0.131237
0.134691
0.128934
0.131841
25.1919
-0.336419
-0.118648
0.133688
0.130388
0.130409
0.126504
25.1492
-0.31319
-0.121004
0.122895
0.119447
0.119398
0.115059
25.1262
-0.291999
-0.122107
0.111534
0.111041
0.106674
0.107907
25.1077
-0.275611
-0.122485
0.106215
0.105311
0.10332
0.101731
25.0912
-0.264219
-0.122378
25.0814
-0.25399
-0.122054
25.0749
-0.246921
-0.121764
25.0702
-0.241685
-0.121624
25.0663
-0.238201
-0.121505
25.0636
-0.236305
-0.121486
25.0609
-0.234426
-0.121558
25.0589
-0.233833
-0.121714
25.0569
-0.233105
-0.121943
25.0555
-0.233085
-0.122216
25.0547
-0.232914
-0.122521
25.0536
-0.232461
-0.122838
25.0534
-0.232403
-0.123068
25.0529
-0.231709
-0.12335
25.0529
-0.231093
-0.12359
25.0539
-0.230493
-0.123839
25.0554
-0.22966
-0.124134
25.0572
-0.227812
-0.124525
-0.226175
-0.125033
25.0068
-0.0153975
-5.72759e-05
25.0101
-0.00507385
-0.000145578
25.018
0.00743539
-0.000376714
25.0379
0.012157
-0.000742341
25.0637
0.0216784
-0.00145077
25.0935
0.0382705
-0.00266667
25.1421
0.0394647
-0.00460732
25.204
0.0525331
-0.00766402
25.2838
0.0628994
-0.012465
25.3803
0.0666959
-0.0195634
25.4873
0.0525959
-0.0295467
25.5666
0.0142021
-0.0429592
25.543
-0.0797146
-0.0587678
25.5273
-0.154169
-0.0750594
25.4035
-0.0429981
-0.0893047
25.3205
-0.176154
-0.100413
25.2702
-0.170227
-0.107746
25.2089
-0.162753
-0.112449
25.1645
-0.153721
-0.115077
25.1331
-0.144271
-0.11645
25.1104
-0.135822
-0.117074
25.0928
-0.129463
-0.117161
25.0802
-0.124352
-0.117093
25.071
-0.120791
-0.116953
25.0644
-0.118161
-0.116887
25.0595
-0.116557
-0.116795
25.0553
-0.115296
-0.116819
25.0525
-0.1147
-0.116939
25.0504
-0.114634
-0.117068
25.0488
-0.114247
-0.117256
25.0476
-0.114466
-0.117456
25.0466
-0.114228
-0.117653
25.0464
-0.114459
-0.117787
25.046
-0.114191
-0.117892
25.0465
-0.114234
-0.117973
25.0472
-0.113721
-0.118005
25.0483
-0.113602
-0.118015
25.0498
-0.113139
-0.118052
25.0526
-0.112395
-0.118178
-0.112541
-0.118468
24.9871
-0.000113585
24.9822
-0.000232636
24.9901
-0.000551797
25.0031
-0.000950709
25.0265
-0.00181709
25.0678
-0.00315555
25.1125
-0.00526171
25.1734
-0.00853451
25.2498
-0.0135145
25.3371
-0.0205687
25.4199
-0.0301276
25.4768
-0.0424412
25.454
-0.0566112
25.3713
-0.0711362
25.4127
-0.0841761
25.3315
-0.0949018
25.2634
-0.102205
25.2074
-0.106774
25.163
-0.109429
25.1295
-0.11085
25.1052
-0.111534
25.0874
-0.111738
25.0747
-0.111721
25.0655
-0.111599
25.059
-0.111598
25.054
-0.111642
25.0505
-0.111803
25.0479
-0.112124
25.0457
-0.112408
25.0442
-0.112779
25.043
-0.113187
25.0423
-0.113534
25.0416
-0.113815
25.0415
-0.114063
25.0416
-0.114308
25.0423
-0.114476
25.0433
-0.114592
25.0449
-0.114707
25.0474
-0.114888
-0.115216
24.9952
0.00189848
0.00269407
24.988
0.00470184
0.00555077
24.9767
0.00732783
0.00887461
24.9602
0.0105544
0.0129555
24.9384
0.0135291
0.0181262
24.9085
0.0184272
0.0248175
24.866
0.026885
0.0334271
24.808
0.0370014
0.0443786
24.7517
0.028604
0.0579877
24.7149
0.000739738
0.0745852
24.6896
-0.0205115
0.0935356
24.6274
0.00568623
0.114354
24.6565
-0.0963345
0.135747
24.7751
-0.196209
0.15633
24.8092
-0.120208
0.174113
24.8351
-0.118644
0.188114
24.8602
-0.122627
0.198471
24.881
-0.121955
0.205957
24.8991
-0.121712
0.211204
24.9273
-0.133602
0.214822
24.9551
-0.134478
0.217186
24.9765
-0.128878
0.218853
24.9932
-0.124639
0.220119
25.0068
-0.121951
0.221193
25.0178
-0.11967
0.222225
25.0271
-0.118277
0.223296
25.0346
-0.116991
0.224434
25.0408
-0.116073
0.225626
25.0461
-0.115719
0.22688
25.0508
-0.115622
0.228171
25.0547
-0.115465
0.229433
25.0581
-0.115445
0.230623
25.0615
-0.116024
0.231671
25.0651
-0.116638
0.232618
25.0683
-0.116765
0.233328
25.0719
-0.117445
0.233875
25.0757
-0.117848
0.234062
25.0798
-0.118306
0.234046
25.0847
-0.118996
0.233621
-0.119512
0.232271
24.9953
0.0038032
0.0026284
24.9882
0.00937885
0.00541274
24.9764
0.0152069
0.00866197
24.96
0.0211351
0.0126753
24.9378
0.0275679
0.0177869
24.9097
0.0350237
0.0244502
24.8762
0.0448103
0.0330995
24.8331
0.058951
0.0442686
24.7698
0.0636807
0.0584551
24.6936
0.0396455
0.076063
24.6502
-0.0250552
0.0968121
24.5887
0.00659285
0.120126
24.6244
-0.204276
0.144164
24.7573
-0.412734
0.167204
24.8392
-0.294926
0.186503
24.9086
-0.287781
0.201333
24.9605
-0.279447
0.212181
25.0023
-0.272397
0.219818
25.0489
-0.279536
0.225134
25.0822
-0.279961
0.228655
25.102
-0.268401
0.230938
25.1161
-0.257779
0.232492
25.1255
-0.249166
0.233677
25.1324
-0.244198
0.234661
25.1377
-0.240572
0.235609
25.141
-0.2375
0.236617
25.1429
-0.235231
0.237744
25.1444
-0.234512
0.238988
25.1451
-0.233951
0.240322
25.1452
-0.233882
0.241693
25.1452
-0.234431
0.243042
25.1454
-0.235233
0.244309
25.1451
-0.235951
0.245488
25.1449
-0.237242
0.24648
25.1454
-0.238579
0.247271
25.1456
-0.239437
0.247821
25.1465
-0.240823
0.24809
25.1483
-0.242236
0.248053
25.1502
-0.243149
0.247669
-0.244457
0.24633
24.9955
0.0056933
0.00249284
24.9886
0.013935
0.00513366
24.977
0.0229986
0.00822914
24.9601
0.0324321
0.012082
24.9369
0.0428608
0.0170431
24.9066
0.0542312
0.0235967
24.8681
0.0678675
0.032282
24.8212
0.0847812
0.0437903
24.7552
0.101053
0.0589184
24.6599
0.0964065
0.0783742
24.5819
0.00523588
0.102385
-0.00507465
0.00553712
-0.00373843
24.7154
-0.0383998
0.129985
-0.0590374
-0.0371961
-0.0573164
24.5736
0.0209592
0.158798
-0.0954158
0.0233341
-0.0921418
24.7361
-0.214891
0.186299
-0.124238
-0.211124
-0.119574
24.8273
-0.128887
0.2074
-0.121592
-0.124088
-0.116134
24.8882
-0.118379
0.222754
-0.117119
-0.113356
-0.111518
24.9432
-0.115823
0.233723
-0.115362
-0.110509
-0.109776
25.0095
-0.118216
0.241252
-0.117084
-0.112854
-0.111495
25.0529
-0.114775
0.246273
-0.113402
-0.109566
-0.108665
25.0799
-0.111232
0.249354
-0.109506
-0.106753
-0.104625
25.0997
-0.413936
0.250991
25.1137
-0.397772
0.251971
25.1231
-0.38409
0.252645
25.1298
-0.37671
0.253953
25.1345
-0.37124
0.25506
25.1374
-0.366862
0.256437
25.1392
-0.363663
0.257386
25.1395
-0.362068
0.25868
25.139
-0.36151
0.260034
25.1387
-0.362496
0.261404
25.1373
-0.362783
0.262724
25.136
-0.364472
0.263943
25.1352
-0.366302
0.264767
25.1337
-0.36788
0.265898
25.1323
-0.369868
0.266538
25.1313
-0.37179
0.266916
25.1307
-0.373862
0.266985
25.1304
-0.3759
0.266702
25.1313
-0.377916
0.26606
-0.379634
0.264485
24.9965
0.00718737
0.00228466
24.99
0.018327
0.00470483
24.9787
0.0307447
0.00755173
24.9621
0.043841
0.011123
24.9388
0.0587498
0.0157781
24.9054
0.0771246
0.0220164
24.8604
0.0982896
0.0305078
24.802
0.122622
0.0420979
24.7337
0.140919
0.0579823
6.14216
0.0378101
0.0796179
0.0528773
0.0381685
0.0529985
6.16235
6.14226
6.16189
-0.0115159
6.12499
0.0164347
0.0174756
-0.0152575
-6.11288
6.10092
-0.0343932
0.0231323
-0.0192681
-6.10476
6.09726
0.0183504
0.0292545
-0.0234414
-6.11249
6.14438
-0.259043
0.035587
-0.0266774
-6.16236
6.1763
-0.156678
0.0404769
-0.0289023
-6.18939
6.20033
-0.144197
0.0437996
-0.0304676
-6.21133
6.2258
-0.14597
0.0461916
-0.0315443
-6.23872
6.24606
-0.141854
0.0478777
-0.0322598
-6.2521
6.25749
-0.136864
0.0489683
-0.0327211
-6.26153
6.26582
-0.132482
0.0496768
25.1087
-0.145817
0.278023
-0.145738
-0.144697
-0.142459
-6.27001
-6.27368
-6.26972
-6.27328
25.1186
-0.549077
0.277883
25.1243
-0.529218
0.277068
25.1283
-0.520434
0.278226
25.1296
-0.512682
0.279628
25.1282
-0.506633
0.281609
25.1257
-0.503216
0.283222
25.1216
-0.501302
0.285131
25.1163
-0.500719
0.286979
25.1097
-0.501627
0.288673
25.1028
-0.50272
0.290128
25.0951
-0.504723
0.291286
25.0868
-0.506601
0.29183
25.0785
-0.509023
0.292532
25.0701
-0.511396
0.292505
25.0619
-0.514021
0.29218
25.0536
-0.516116
0.291316
25.046
-0.518739
0.289977
25.0401
-0.521983
0.288087
-0.524108
0.285048
24.9982
0.00701167
0.00200337
24.9929
0.0217405
0.00412288
24.9832
0.0373594
0.00661414
24.9683
0.054167
0.0097496
24.9459
0.0745722
0.0138658
24.9134
0.100531
0.019179
24.8643
0.134174
0.0271255
24.7913
0.17703
0.0378377
6.17297
0.226668
0.0530852
6.16608
6.17345
6.16637
-0.00782742
6.1579
0.048808
0.0119124
-0.0110221
6.13202
0.0168305
-6.16064
0.0196869
0.0112375
0.0198624
0.0110367
-0.038991
-0.015106
-6.07927
6.04609
0.0232236
-0.00272062
0.00292821
-0.00273542
0.00289626
0.0245724
-0.0200749
-6.04455
6.05804
0.0309515
0.0515983
-0.041118
0.0511784
-0.0409309
-0.0452964
-0.0253346
-6.09798
6.13848
0.03898
-0.051685
-0.129841
-0.052354
-0.129382
0.308945
-0.0282388
-6.16852
6.1793
0.0435649
-0.0508504
-0.0544871
-0.0515024
-0.0538463
0.184499
-0.0299826
-6.19228
6.20636
0.0461734
-0.0518897
-0.0515142
-0.0524026
-0.051
0.176588
-0.0311981
-6.22034
6.23254
0.0480169
-0.0501645
-0.050606
-0.0506464
-0.0501562
0.172651
-0.0320503
-6.24242
6.24978
0.049299
-0.0471691
-0.0478191
-0.047907
-0.0473588
0.16567
-0.032709
-6.25641
6.26092
0.0502065
-0.0447993
-0.0455127
-0.0453377
-0.045009
0.158618
-0.0332537
-6.26532
6.26783
0.0508516
-0.0427984
-0.0435154
-0.0431337
-0.0429639
0.152256
-6.27072
-0.0335028
6.27337
-0.166369
0.0513866
25.0622
-0.667205
0.280739
-6.27521
-6.26859
-6.27534
-6.26813
25.0426
-0.648391
0.277387
25.0194
-0.633497
0.274993
24.9941
-0.621628
0.272731
24.9682
-0.614054
0.271132
24.9415
-0.609628
0.270231
24.9146
-0.607473
0.269093
24.8876
-0.607226
0.268273
24.8604
-0.608294
0.26733
24.8337
-0.610328
0.266104
24.8077
-0.612997
0.264262
24.7824
-0.615945
0.262499
24.758
-0.618867
0.259981
24.7348
-0.622048
0.257039
24.7127
-0.625025
0.253686
24.6924
-0.628003
0.249851
24.6741
-0.631109
0.245464
24.6581
-0.634873
0.24046
-0.640148
0.234414
25.002
0.00359258
0.00165467
24.9997
0.0225089
0.00340235
24.9919
0.0425642
0.00543406
24.9798
0.0625155
0.00797117
24.9621
0.0867844
0.0112815
24.936
0.119525
0.0152305
24.8936
0.165865
0.0218463
24.8221
0.23334
0.0303118
6.17242
0.338372
0.0425621
6.17158
6.17267
6.17169
-0.00609923
-0.063746
6.147
0.0857338
0.00948852
-0.00197902
-0.0190111
-1.52802
1.52279
0.0235819
0.00262237
-0.00291892
-0.0178324
-1.5046
1.49215
0.0294399
0.00372592
-0.00438116
-1.46966
0.0531083
1.47961
-0.0642611
0.00556485
-0.00605702
-1.52858
0.154179
1.53989
-0.1672
0.00775955
-0.00621552
-1.53624
0.061242
-0.0653818
1.53826
0.00831922
-1.54748
-0.00596474
0.0609515
-0.0660365
0.00832011
1.5502
-0.00585965
0.0586316
-1.55576
1.55715
-0.0624477
0.00828315
-0.00588052
0.0544035
-1.5599
1.56035
-0.0574688
0.00849292
-0.00606291
0.0514669
-1.56071
1.56068
-0.0543038
0.00892195
-0.00643634
0.0488837
-1.55983
1.55938
-0.0514268
0.00942206
-1.55315
-0.0268318
0.181181
6.1566
-0.176441
0.0434235
-1.53464
-1.55377
-1.53639
23.8167
-0.776931
0.134779
-6.09884
-5.79407
-6.09465
-5.78572
23.8428
-0.742206
0.135562
23.8634
-0.723022
0.135639
23.8808
-0.708192
0.134305
23.8951
-0.697445
0.13257
23.9064
-0.689976
0.130823
23.9159
-0.685202
0.128282
23.9241
-0.682569
0.125608
23.9317
-0.681581
0.122553
23.939
-0.681694
0.119109
23.9466
-0.682477
0.115073
23.9545
-0.683689
0.1112
23.9632
-0.685008
0.106821
23.9726
-0.686305
0.102255
23.9827
-0.687477
0.0974887
23.9936
-0.688461
0.0924856
24.005
-0.689224
0.0870888
24.0167
-0.689757
0.0809392
-0.690054
0.0732232
25.009
0.00229124
0.00128413
25.0098
0.0205383
0.00259118
25.0064
0.0439864
0.00407923
24.9997
0.0664226
0.00588706
24.9897
0.0927543
0.00816774
24.9762
0.128143
0.0106174
24.9567
0.177902
0.0149554
24.9263
0.253699
0.0198972
6.21389
0.378434
0.0265146
6.2221
6.21394
6.22243
-0.00359976
-0.10373
6.19843
0.117143
0.00563386
-0.00109643
-0.038695
-1.54209
1.53593
0.0444957
0.00144911
-0.00152277
-0.0807929
-1.50602
1.48762
0.098816
0.00188555
-0.000201707
0.00452141
-0.0748328
0.0750613
-0.00475803
0.000210427
0.000578364
-0.253842
0.0215359
-0.0329216
0.00277781
0.261871
-1.2116
0.00157304
0.0667149
-0.0834795
-0.00336096
1.23016
0.00272987
0.0583878
-1.27439
1.28475
-0.0650504
-0.00642715
0.00422729
0.0597974
-1.31785
1.32916
-0.0668164
-0.00852424
0.0056488
0.0587838
-1.3576
1.36586
-0.0630268
-0.00967289
0.00703782
0.0576883
-1.3848
1.39094
-0.0607305
-0.0101287
-1.41831
0.0336295
0.209213
5.83549
-0.222056
-0.0408541
-1.50242
-1.39599
-1.49871
24.1129
-0.680569
-0.222939
-5.88122
-6.16912
-5.88472
-6.17239
24.1198
-0.648753
-0.219982
24.1312
-0.63526
-0.215981
24.147
-0.625639
-0.212352
24.1658
-0.618621
-0.208928
24.1871
-0.614157
-0.20554
24.2103
-0.61182
-0.202183
24.2344
-0.610887
-0.198875
24.259
-0.610906
-0.195641
24.2832
-0.61144
-0.192497
24.307
-0.612363
-0.189491
24.3303
-0.613566
-0.186624
24.3531
-0.61478
-0.184012
24.3751
-0.615577
-0.181636
24.3964
-0.616041
-0.179586
24.4168
-0.616106
-0.177971
24.4363
-0.615698
-0.177039
24.4545
-0.614305
-0.177073
-0.610709
-0.178452
25.0084
-0.00287445
0.000876353
25.0156
0.012552
0.00173919
25.0223
0.0359202
0.00265584
25.0263
0.0606361
0.00368
25.0257
0.0909136
0.00483655
25.0302
0.120819
0.00585676
25.0423
0.162036
0.00738065
25.0709
0.220876
0.00833094
6.27633
0.309818
0.0083774
6.2887
6.27778
6.29216
-0.000837078
-0.108727
6.2839
0.100707
0.00131195
-9.82823e-05
-0.0438965
-1.57799
1.5797
0.0421771
0.000115178
0.000306286
-0.0806445
-1.60018
1.61674
0.0642207
-0.000431545
0.00147747
-0.0260588
-1.71291
1.75091
0.0576127
-0.000804964
-0.0214238
-0.0269994
-0.021806
0.00336812
0.113343
-1.71053
1.67939
-0.0810183
-0.00453788
0.107887
-1.60913
0.00484031
1.5982
-0.0952778
-0.00649156
0.00576286
0.0769995
-1.58364
-0.00756119
1.58154
-0.0730824
0.00638859
0.0568464
-1.57828
1.57674
-0.0534145
-0.00827461
0.00676193
0.0584033
-1.57573
1.57422
-0.0548961
-0.00876296
0.00701252
0.0524137
-1.57319
1.57248
-0.0496103
-0.00910214
0.00715228
0.048571
-1.56954
1.5698
-0.0467156
-0.00927006
-1.56982
0.0301525
0.182999
6.27325
-0.159201
-0.0467502
-1.56988
-1.57006
-1.57068
25.0798
-0.52539
-0.264467
-6.27543
-6.26873
-6.28093
-6.27406
25.0779
-0.513413
-0.261811
25.0737
-0.499762
-0.258764
25.07
-0.491631
-0.256668
25.0666
-0.485711
-0.255227
25.0644
-0.482534
-0.254256
25.0628
-0.480623
-0.253748
25.0616
-0.479762
-0.253669
25.0609
-0.479547
-0.253944
25.0604
-0.47943
-0.254486
25.0601
-0.479645
-0.25522
25.0603
-0.480112
-0.256299
25.0604
-0.480371
-0.256966
25.0603
-0.479823
-0.257891
25.0606
-0.479756
-0.25884
25.0611
-0.478859
-0.259937
25.0618
-0.477447
-0.261312
25.0627
-0.474954
-0.263101
-0.471866
-0.265176
25.0071
-0.0075652
0.000487332
25.0173
0.00181234
0.000927983
25.0316
0.0209258
0.00130359
25.0402
0.0512009
0.00158449
25.058
0.0721605
0.00167485
25.0816
0.0963113
0.00138201
25.1197
0.12359
0.00034747
25.1853
0.156089
-0.00214502
6.32997
0.19661
-0.0073192
6.31922
6.33436
6.31812
-0.0855196
0.00152079
6.34835
0.0679528
-0.00233581
-0.0327356
0.00350397
6.42196
0.0866651
-0.00512627
-0.0307568
-0.0329174
-0.0298286
-6.38082
-0.0289098
0.00708862
6.49325
0.0793879
-0.0104628
-0.0282796
-0.0278544
-0.0304173
-6.45375
-0.00838182
0.0123943
-6.54131
6.50023
-0.061477
-0.0190437
0.0638853
-0.00949067
0.0633536
0.0364021
0.0192966
-6.49273
6.47427
-0.148518
-0.0291603
0.0528674
0.0356859
0.0520687
0.0595744
-6.45067
0.0249579
6.40708
-0.187534
-0.0373154
0.0587468
0.0630531
0.0622252
0.0573599
0.0284688
-6.36693
6.33888
-0.181602
-0.0425606
0.0554097
0.0564271
0.0545389
0.0470011
0.0307404
-6.32482
6.31744
-0.162636
-0.0459775
0.0462656
0.0462687
0.0456459
0.0454475
0.0320725
-6.31302
6.30497
-0.157273
-0.0479926
0.0458368
0.0447748
0.0451477
0.0443508
0.0326313
-6.29626
6.28735
-0.145812
-0.048948
0.0417819
0.0437439
0.0411727
0.0391176
0.0327778
-6.28003
6.27237
-0.127883
-0.0492349
0.0361014
0.0395621
0.0372464
0.138645
-6.27106
0.0328474
6.27149
-0.122718
-0.0491933
25.071
-0.383417
-0.265756
-6.27006
-6.26815
-6.27046
-6.2678
25.0648
-0.37334
-0.262604
25.0614
-0.36433
-0.259959
25.0587
-0.357885
-0.258331
25.0572
-0.35377
-0.257133
25.0558
-0.35095
-0.25621
25.0549
-0.349737
-0.255532
25.0544
-0.349308
-0.255058
25.0538
-0.34889
-0.254745
25.0539
-0.349248
-0.254551
25.0537
-0.349196
-0.254414
25.054
-0.349574