/*--------------------------------*- C++ -*----------------------------------*\
| =========                 |                                                 |
| \\      /  F ield         | OpenFOAM: The Open Source CFD Toolbox           |
|  \\    /   O peration     | Version:  2306                                  |
|   \\  /    A nd           | Website:  www.openfoam.com                      |
|    \\/     M anipulation  |                                                 |
\*---------------------------------------------------------------------------*/
FoamFile
{
    version     2.0;
    format      ascii;
    arch        "LSB;label=32;scalar=64";
    class       volVectorField;
    location    "1.75";
    object      U;
}
// * * * * * * * * * * * * * * * * * * * * * * * * * * * * * * * * * * * * * //

dimensions      [0 1 -1 0 0 0 0];

internalField   nonuniform List<vector> 
111542
(
(99.9932 0.00549033 0.00286406)
(99.9704 0.0111053 0.00602213)
(99.9284 0.0168315 0.00955219)
(99.8659 0.0228385 0.0138876)
(99.7817 0.0288864 0.0193863)
(99.6737 0.034208 0.0264783)
(99.541 0.0369425 0.0354193)
(99.3859 0.034105 0.0467047)
(99.2179 0.0210185 0.0608519)
(99.057 -0.0087987 0.0779299)
(98.9366 -0.0610973 0.0975556)
(98.8972 -0.133593 0.118976)
(98.965 -0.208101 0.141354)
(99.1306 -0.264814 0.162602)
(99.3488 -0.292881 0.180926)
(99.5712 -0.301857 0.19568)
(99.7708 -0.300721 0.206699)
(99.9407 -0.294141 0.214608)
(100.082 -0.284989 0.220086)
(100.196 -0.275267 0.22392)
(100.287 -0.266378 0.226476)
(100.358 -0.25872 0.228355)
(100.412 -0.252257 0.230173)
(100.453 -0.247487 0.231933)
(100.484 -0.244283 0.233771)
(100.508 -0.242207 0.235908)
(100.525 -0.241351 0.238083)
(100.538 -0.241533 0.240255)
(100.545 -0.24237 0.242504)
(100.55 -0.24364 0.244744)
(100.553 -0.245203 0.246854)
(100.555 -0.246997 0.248687)
(100.556 -0.248773 0.250317)
(100.556 -0.250439 0.2517)
(100.557 -0.251972 0.252756)
(100.56 -0.253388 0.25341)
(100.563 -0.254755 0.253554)
(100.569 -0.255965 0.253306)
(100.578 -0.257078 0.252688)
(100.594 -0.258356 0.251761)
(99.9935 0.0163538 0.00280841)
(99.9711 0.0330259 0.00583083)
(99.9296 0.0504324 0.00931849)
(99.8676 0.0689991 0.0136013)
(99.7827 0.0881832 0.0190302)
(99.6714 0.105937 0.0260258)
(99.5305 0.117356 0.0350331)
(99.3595 0.113596 0.0465786)
(99.1645 0.079936 0.0611629)
(98.9644 -0.00488214 0.079009)
(98.8006 -0.158485 0.0999653)
(98.7394 -0.374539 0.12247)
(98.8252 -0.60051 0.14678)
(99.0363 -0.764012 0.170108)
(99.2997 -0.845712 0.189944)
(99.5506 -0.875253 0.205373)
(99.7654 -0.875131 0.216684)
(99.943 -0.858683 0.224694)
(100.087 -0.8348 0.230252)
(100.201 -0.808522 0.234084)
(100.29 -0.783286 0.236774)
(100.359 -0.761802 0.239015)
(100.41 -0.744628 0.241269)
(100.448 -0.731794 0.243606)
(100.477 -0.721656 0.246008)
(100.499 -0.713213 0.248481)
(100.514 -0.706916 0.25095)
(100.525 -0.70288 0.253367)
(100.532 -0.700703 0.255706)
(100.536 -0.700051 0.257916)
(100.538 -0.700668 0.25994)
(100.539 -0.702338 0.261725)
(100.54 -0.704621 0.263252)
(100.54 -0.707263 0.264481)
(100.54 -0.710124 0.26535)
(100.542 -0.713139 0.265806)
(100.545 -0.716322 0.265796)
(100.55 -0.71949 0.265328)
(100.558 -0.722655 0.264431)
(100.571 -0.725942 0.263253)
(99.9938 0.0268134 0.00266528)
(99.9725 0.054259 0.00551954)
(99.9327 0.0836801 0.00884055)
(99.8722 0.116012 0.0129419)
(99.7871 0.151066 0.0181851)
(99.6713 0.186576 0.0250309)
(99.517 0.216273 0.034035)
(99.3167 0.226513 0.0458553)
(99.0675 0.190535 0.0612048)
(98.7866 0.0595532 0.0806951)
(98.5337 -0.276497 0.104704)
(98.4206 -0.741518 0.13262)
(98.5434 -1.1637 0.159276)
(98.8488 -1.40706 0.185032)
(99.1943 -1.50681 0.206342)
(99.4947 -1.53582 0.22221)
(99.7375 -1.52031 0.2334)
(99.9292 -1.48297 0.241093)
(100.078 -1.43775 0.246337)
(100.193 -1.39061 0.249905)
(100.28 -1.34719 0.25243)
(100.343 -1.30773 0.25499)
(100.39 -1.28208 0.258234)
(100.425 -1.26867 0.262043)
(100.453 -1.26038 0.266032)
(100.473 -1.25409 0.269872)
(100.487 -1.24972 0.273348)
(100.495 -1.24737 0.276352)
(100.499 -1.24672 0.278859)
(100.5 -1.24747 0.280891)
(100.498 -1.24933 0.28248)
(100.495 -1.25202 0.283648)
(100.492 -1.25521 0.284403)
(100.488 -1.25865 0.284735)
(100.484 -1.26214 0.284611)
(100.481 -1.26561 0.283993)
(100.48 -1.26904 0.282843)
(100.48 -1.27239 0.281159)
(100.484 -1.27564 0.279019)
(100.491 -1.27854 0.276726)
(99.9945 0.0363957 0.00244222)
(99.9754 0.0740364 0.00504992)
(99.9391 0.115384 0.00809152)
(99.8829 0.162579 0.0118755)
(99.8011 0.216914 0.0167656)
(99.6843 0.277965 0.0232426)
(99.5179 0.341593 0.0319411)
(99.2812 0.395312 0.043667)
(98.945 0.409467 0.0594139)
(98.4448 0.209253 0.0803696)
(98.1861 0.0298601 0.0869929)
(97.837 -0.627713 0.102484)
(97.8991 -1.43438 0.116751)
(98.3754 -1.95631 0.129564)
(98.8769 -2.11399 0.142358)
(99.2702 -2.14946 0.151263)
(99.5845 -2.11495 0.157012)
(99.8217 -2.04611 0.160383)
(99.9991 -1.96973 0.162211)
(100.135 -1.89851 0.163159)
(100.311 -1.95462 0.268714)
(100.36 -1.8796 0.273426)
(100.381 -1.82567 0.279368)
(100.396 -1.79188 0.285865)
(100.408 -1.76886 0.292228)
(100.415 -1.75352 0.297842)
(100.413 -1.74464 0.302313)
(100.404 -1.74088 0.305528)
(100.389 -1.74093 0.307556)
(100.37 -1.74381 0.308533)
(100.348 -1.7487 0.308597)
(100.323 -1.75485 0.30786)
(100.297 -1.7616 0.306402)
(100.27 -1.76841 0.304275)
(100.243 -1.77491 0.301517)
(100.216 -1.78093 0.298157)
(100.191 -1.78647 0.294222)
(100.168 -1.79166 0.289775)
(100.147 -1.79657 0.284977)
(100.126 -1.80045 0.280382)
(99.9955 0.0443606 0.00214008)
(99.98 0.0907512 0.004415)
(99.9503 0.142977 0.00706278)
(99.903 0.204941 0.0103651)
(99.8317 0.280567 0.0146569)
(99.7249 0.373697 0.0203812)
(99.563 0.487278 0.0281479)
(99.3132 0.620174 0.0387531)
(98.8701 0.759326 0.0532266)
(98.5252 0.767587 0.0584739)
(97.7102 0.379942 0.0715542)
(96.9002 -0.68483 0.0884709)
(96.9846 -2.34265 0.102941)
(98.1022 -2.96188 0.11407)
(98.8268 -3.00647 0.127798)
(99.2977 -2.9708 0.137205)
(99.6576 -2.85672 0.142792)
(99.8986 -2.72591 0.1454)
(100.063 -2.60489 0.146227)
(100.174 -2.5045 0.146503)
(100.253 -2.44691 0.149862)
(100.184 -2.563 0.281402)
(100.068 -2.54131 0.292773)
(99.9568 -2.50668 0.304154)
(99.8555 -2.46869 0.31371)
(99.7557 -2.43585 0.32036)
(99.6556 -2.40972 0.323628)
(99.5562 -2.38946 0.323613)
(99.4582 -2.37421 0.320739)
(99.362 -2.36322 0.31552)
(99.2683 -2.35568 0.308449)
(99.1776 -2.35066 0.29996)
(99.0907 -2.34724 0.290431)
(99.008 -2.34465 0.280195)
(98.9302 -2.3423 0.269562)
(98.8576 -2.33986 0.258805)
(98.7906 -2.33729 0.248141)
(98.73 -2.33497 0.237751)
(98.6771 -2.33394 0.227847)
(98.6267 -2.33657 0.219055)
(99.997 0.0497756 0.00176634)
(99.9867 0.102353 0.0036288)
(99.9667 0.162826 0.00577314)
(99.9342 0.236968 0.00842426)
(99.8835 0.331804 0.0118422)
(99.8043 0.456841 0.0163588)
(99.6773 0.625975 0.0224158)
(99.4659 0.859843 0.0305525)
(99.046 1.19046 0.0414027)
(98.6362 1.35443 0.0456603)
(97.6801 1.50024 0.0436691)
(95.5639 0.736821 0.0404042)
(94.3443 -3.41134 0.0550515)
(98.1302 -4.72295 0.0437628)
(98.6616 -3.94412 0.0541817)
(99.2461 -3.89001 0.0586711)
(99.6351 -3.67542 0.053835)
(99.798 -3.43989 0.037081)
(99.841 -3.23656 0.0166762)
(99.8029 -3.04991 0.00348499)
(98.619 -2.85712 0.0976784)
(95.2371 -2.49412 0.139601)
(95.2774 -2.56671 0.145252)
(95.3395 -2.60045 0.148263)
(95.3933 -2.6146 0.14791)
(95.4404 -2.62218 0.144429)
(95.4865 -2.62704 0.138423)
(95.533 -2.63027 0.13058)
(95.5796 -2.63266 0.121542)
(95.6254 -2.63464 0.111817)
(95.6702 -2.63623 0.101774)
(95.7139 -2.63715 0.091686)
(95.7568 -2.63702 0.0817659)
(95.799 -2.63552 0.0722034)
(95.8409 -2.63245 0.0631596)
(95.8828 -2.62779 0.054739)
(95.9251 -2.62179 0.0469562)
(95.9681 -2.61501 0.0397031)
(96.011 -2.60863 0.0327631)
(96.0602 -2.60503 0.026043)
(99.9989 0.0517309 0.00136372)
(99.9951 0.106788 0.00274838)
(99.9876 0.171085 0.00429988)
(99.975 0.251659 0.00616683)
(99.9547 0.357725 0.00849213)
(99.9218 0.503087 0.0114323)
(99.8682 0.71007 0.01514)
(99.7796 1.01764 0.0196811)
(99.6085 1.49979 0.024865)
(99.3411 1.90321 0.0270369)
(98.6222 2.84713 0.0245292)
(95.4713 5.86465 0.0199212)
(77.0533 -4.20134 0.0225682)
(102.65 -10.2808 0.0231363)
(53.0479 -3.24258 -0.13033)
(76.2181 -4.58546 0.101378)
(79.9317 -3.78233 0.160267)
(82.3013 -3.33746 0.193172)
(84.04 -3.02425 0.180474)
(85.5882 -2.85145 0.134488)
(93.1324 -3.69306 -0.0416363)
(96.3824 -3.30178 -0.241529)
(96.5427 -3.18658 -0.258812)
(96.7014 -3.10123 -0.268784)
(96.8258 -3.03613 -0.274006)
(96.9254 -2.98392 -0.275299)
(97.0124 -2.94136 -0.273358)
(97.0917 -2.90658 -0.269018)
(97.1653 -2.87799 -0.263007)
(97.2342 -2.8541 -0.255838)
(97.2991 -2.83361 -0.247859)
(97.3605 -2.81539 -0.23933)
(97.4186 -2.79854 -0.23049)
(97.4734 -2.78233 -0.221599)
(97.525 -2.76626 -0.212957)
(97.5737 -2.75001 -0.204907)
(97.6199 -2.73335 -0.19785)
(97.6641 -2.71607 -0.192232)
(97.707 -2.69766 -0.188612)
(97.7606 -2.67638 -0.18798)
(100.001 0.0497397 0.000964271)
(100.004 0.102775 0.00185324)
(100.01 0.165189 0.00278102)
(100.02 0.244121 0.00380749)
(100.034 0.34896 0.00494487)
(100.055 0.493549 0.00614716)
(100.09 0.699538 0.00725111)
(100.154 1.00295 0.0078284)
(100.302 1.46617 0.00690971)
(100.353 1.87909 0.00660376)
(100.633 2.86918 0.00290685)
(102.466 5.41104 -0.00366665)
(111.244 3.93684 -0.0486964)
(109.145 -6.78867 0.0255665)
(102.801 -6.84989 -0.0369921)
(101.122 -5.04845 -0.0514789)
(100.667 -4.05026 -0.0499924)
(100.487 -3.49458 -0.0458133)
(100.397 -3.15937 -0.0428687)
(100.329 -2.95377 -0.0430545)
(100.246 -2.72062 -0.132308)
(100.278 -2.30244 -0.262191)
(100.263 -2.19592 -0.266352)
(100.252 -2.13159 -0.269612)
(100.244 -2.09427 -0.272645)
(100.235 -2.07114 -0.275251)
(100.227 -2.05707 -0.277113)
(100.22 -2.04989 -0.278202)
(100.214 -2.04775 -0.27863)
(100.209 -2.04894 -0.27851)
(100.205 -2.05202 -0.277923)
(100.201 -2.05585 -0.276931)
(100.198 -2.05954 -0.275587)
(100.195 -2.06243 -0.273951)
(100.194 -2.06403 -0.272106)
(100.193 -2.06401 -0.270172)
(100.194 -2.06213 -0.268323)
(100.196 -2.05805 -0.266781)
(100.201 -2.05119 -0.265776)
(100.212 -2.04019 -0.265311)
(100.003 0.0435772 0.000488717)
(100.013 0.0900898 0.000918431)
(100.032 0.144867 0.00127088)
(100.062 0.214024 0.00150535)
(100.107 0.30524 0.00152467)
(100.175 0.428829 0.00111935)
(100.28 0.59908 -0.000122063)
(100.448 0.835504 -0.00295253)
(100.769 1.1624 -0.0087453)
(100.997 1.40239 -0.0109733)
(101.858 1.85832 -0.0185912)
(103.484 1.75642 -0.0321288)
(105.279 -0.271322 -0.0484822)
(104.812 -2.88031 -0.0304325)
(102.992 -3.60338 -0.0524433)
(101.763 -3.38202 -0.0707642)
(101.128 -3.0235 -0.0818928)
(100.788 -2.71736 -0.0882019)
(100.591 -2.484 -0.0917573)
(100.463 -2.30709 -0.0940268)
(100.375 -2.16499 -0.0965404)
(100.285 -1.86965 -0.255077)
(100.255 -1.8308 -0.256242)
(100.235 -1.8038 -0.257254)
(100.222 -1.78658 -0.258216)
(100.214 -1.77508 -0.25902)
(100.208 -1.76694 -0.259552)
(100.203 -1.7612 -0.259832)
(100.2 -1.75718 -0.259947)
(100.197 -1.75417 -0.259963)
(100.195 -1.75154 -0.259908)
(100.194 -1.7488 -0.259775)
(100.193 -1.74556 -0.259535)
(100.193 -1.74152 -0.259156)
(100.193 -1.73644 -0.258625)
(100.195 -1.73015 -0.25797)
(100.198 -1.72252 -0.257264)
(100.203 -1.71344 -0.256636)
(100.211 -1.70286 -0.256261)
(100.23 -1.69119 -0.256366)
(100.004 0.0337572 0.000154115)
(100.02 0.0698481 0.00021215)
(100.049 0.112205 6.90871e-05)
(100.095 0.165261 -0.000369535)
(100.163 0.23415 -0.00127154)
(100.264 0.324788 -0.00296007)
(100.411 0.443476 -0.00597544)
(100.631 0.594597 -0.0111928)
(100.968 0.774094 -0.0200152)
(101.457 0.856404 -0.0341915)
(102.101 0.754611 -0.0554074)
(102.78 0.218713 -0.0847502)
(103.137 -0.7791 -0.118465)
(102.883 -1.61612 -0.149926)
(102.231 -1.92256 -0.181575)
(101.595 -1.92474 -0.206563)
(101.145 -1.83398 -0.222788)
(100.856 -1.7229 -0.232363)
(100.663 -1.61641 -0.237744)
(100.53 -1.52143 -0.240532)
(100.439 -1.43906 -0.241774)
(100.379 -1.36676 -0.242259)
(100.338 -1.30961 -0.242659)
(100.309 -1.26411 -0.243215)
(100.287 -1.22919 -0.243967)
(100.271 -1.20321 -0.244908)
(100.258 -1.18415 -0.24601)
(100.247 -1.17044 -0.247236)
(100.238 -1.16081 -0.248544)
(100.23 -1.15419 -0.249884)
(100.224 -1.14963 -0.251204)
(100.219 -1.14633 -0.252449)
(100.215 -1.14366 -0.253573)
(100.212 -1.14111 -0.25454)
(100.211 -1.13824 -0.25534)
(100.211 -1.13478 -0.255993)
(100.213 -1.13052 -0.256548)
(100.217 -1.12534 -0.257096)
(100.223 -1.11929 -0.257763)
(100.234 -1.1127 -0.258712)
(100.005 0.0213459 -0.00011752)
(100.025 0.0440599 -0.000370651)
(100.061 0.0707031 -0.00088324)
(100.117 0.103672 -0.00179007)
(100.2 0.145903 -0.00333291)
(100.318 0.199841 -0.00586781)
(100.483 0.266943 -0.00996274)
(100.712 0.344628 -0.016408)
(101.024 0.419737 -0.0262892)
(101.426 0.452498 -0.0408521)
(101.892 0.38626 -0.0612776)
(102.322 0.146142 -0.0881907)
(102.541 -0.277929 -0.119285)
(102.42 -0.709726 -0.150098)
(102.027 -0.95404 -0.17829)
(101.565 -1.01199 -0.20057)
(101.185 -0.980791 -0.216158)
(100.912 -0.92357 -0.225972)
(100.717 -0.864004 -0.23178)
(100.575 -0.80911 -0.234957)
(100.471 -0.762029 -0.236466)
(100.395 -0.726093 -0.237034)
(100.339 -0.701252 -0.237279)
(100.298 -0.685124 -0.237491)
(100.268 -0.675623 -0.237812)
(100.245 -0.671171 -0.238313)
(100.228 -0.67027 -0.239014)
(100.215 -0.671682 -0.239887)
(100.205 -0.67451 -0.240873)
(100.197 -0.678097 -0.241906)
(100.192 -0.681911 -0.242916)
(100.188 -0.685559 -0.243835)
(100.185 -0.688746 -0.244606)
(100.184 -0.691313 -0.24519)
(100.184 -0.692869 -0.245604)
(100.186 -0.693493 -0.245841)
(100.19 -0.693187 -0.245941)
(100.195 -0.691962 -0.245996)
(100.204 -0.689896 -0.246158)
(100.222 -0.687031 -0.246705)
(100.006 0.00729855 -0.0002844)
(100.027 0.0150249 -0.000663688)
(100.066 0.0241176 -0.0013986)
(100.128 0.0352315 -0.00249352)
(100.217 0.0494146 -0.00438064)
(100.342 0.0672266 -0.00734942)
(100.513 0.0886655 -0.0120012)
(100.741 0.112213 -0.0190062)
(101.033 0.132668 -0.0294375)
(101.383 0.137242 -0.0440266)
(101.757 0.105831 -0.0635066)
(102.077 0.0177787 -0.0879368)
(102.239 -0.122848 -0.115902)
(102.169 -0.268155 -0.144494)
(101.891 -0.360159 -0.170105)
(101.527 -0.388289 -0.190867)
(101.191 -0.381677 -0.206061)
(100.93 -0.364918 -0.215937)
(100.735 -0.347203 -0.221929)
(100.589 -0.330896 -0.22529)
(100.48 -0.316871 -0.227002)
(100.4 -0.30572 -0.22776)
(100.341 -0.296908 -0.228085)
(100.298 -0.289679 -0.228249)
(100.267 -0.283332 -0.228574)
(100.244 -0.277564 -0.229159)
(100.226 -0.272189 -0.230006)
(100.213 -0.267083 -0.231078)
(100.203 -0.262194 -0.232307)
(100.195 -0.257507 -0.233615)
(100.188 -0.253008 -0.234915)
(100.184 -0.24868 -0.236124)
(100.18 -0.244516 -0.237165)
(100.179 -0.240535 -0.237945)
(100.178 -0.23651 -0.238651)
(100.18 -0.232545 -0.239164)
(100.182 -0.228668 -0.239497)
(100.187 -0.2249 -0.239744)
(100.195 -0.221381 -0.240058)
(100.207 -0.218645 -0.240738)
(99.9936 0.00543512 0.00826711)
(99.9719 0.0109151 0.0172613)
(99.9317 0.0166005 0.0275554)
(99.8721 0.022558 0.0402009)
(99.7918 0.0285389 0.0562136)
(99.6885 0.0337703 0.0767817)
(99.5616 0.0365753 0.102955)
(99.4133 0.034 0.136141)
(99.2526 0.0213537 0.177641)
(99.0987 -0.00771018 0.22781)
(98.9839 -0.0587554 0.28598)
(98.9483 -0.130108 0.349853)
(99.0166 -0.202324 0.415624)
(99.1792 -0.256595 0.477754)
(99.3929 -0.283065 0.531255)
(99.6104 -0.291282 0.574171)
(99.8055 -0.289814 0.606397)
(99.9714 -0.283109 0.629553)
(100.108 -0.273868 0.645563)
(100.219 -0.264179 0.656418)
(100.306 -0.255102 0.66347)
(100.372 -0.247048 0.668253)
(100.422 -0.240123 0.67211)
(100.458 -0.234757 0.675397)
(100.485 -0.230968 0.678474)
(100.505 -0.228543 0.681754)
(100.519 -0.227377 0.68506)
(100.529 -0.227301 0.688445)
(100.535 -0.228039 0.692044)
(100.539 -0.229331 0.695724)
(100.541 -0.230967 0.699261)
(100.543 -0.232788 0.702408)
(100.545 -0.234647 0.705187)
(100.547 -0.23645 0.707476)
(100.55 -0.238143 0.709115)
(100.553 -0.239727 0.70996)
(100.559 -0.241214 0.70985)
(100.566 -0.242607 0.708886)
(100.576 -0.243964 0.707031)
(100.593 -0.245454 0.704254)
(99.9938 0.0161562 0.00808335)
(99.9725 0.0325269 0.0167926)
(99.9329 0.0497282 0.0269035)
(99.8737 0.068067 0.0393562)
(99.7926 0.0870053 0.0551778)
(99.686 0.104536 0.0756054)
(99.551 0.116043 0.102017)
(99.387 0.112844 0.136006)
(99.1997 0.0803999 0.179091)
(99.0071 -0.00203042 0.232167)
(98.8488 -0.151517 0.294924)
(98.7916 -0.360782 0.365009)
(98.878 -0.58125 0.437996)
(99.0846 -0.741115 0.506574)
(99.3413 -0.819712 0.564102)
(99.5859 -0.848039 0.60873)
(99.7953 -0.847689 0.64142)
(99.9682 -0.831424 0.664471)
(100.108 -0.807768 0.680245)
(100.218 -0.781729 0.690706)
(100.304 -0.75648 0.697446)
(100.369 -0.734312 0.702288)
(100.417 -0.715737 0.706242)
(100.452 -0.700893 0.709531)
(100.478 -0.688656 0.712393)
(100.497 -0.678555 0.715211)
(100.51 -0.670996 0.718203)
(100.519 -0.666159 0.721469)
(100.524 -0.663727 0.724991)
(100.528 -0.663257 0.728631)
(100.53 -0.664332 0.732192)
(100.531 -0.666568 0.735488)
(100.532 -0.669579 0.73839)
(100.533 -0.673092 0.740763)
(100.535 -0.676933 0.742464)
(100.537 -0.680994 0.74337)
(100.541 -0.685254 0.74338)
(100.547 -0.689667 0.742455)
(100.555 -0.694187 0.740562)
(100.57 -0.698733 0.737756)
(99.9942 0.0264487 0.00767084)
(99.9739 0.0534834 0.0159187)
(99.9359 0.0824649 0.0255511)
(99.878 0.114309 0.0374956)
(99.7966 0.148839 0.0528269)
(99.6855 0.18387 0.0729102)
(99.5373 0.213314 0.0994336)
(99.3444 0.223812 0.134434)
(99.1039 0.189068 0.180129)
(98.8325 0.0610868 0.238456)
(98.5884 -0.267575 0.310131)
(98.4786 -0.72214 0.392485)
(98.5976 -1.13381 0.477164)
(98.8949 -1.37082 0.555692)
(99.231 -1.46762 0.618849)
(99.5235 -1.49609 0.665492)
(99.7604 -1.48093 0.698218)
(99.9473 -1.44398 0.720447)
(100.092 -1.3988 0.735098)
(100.203 -1.35127 0.744253)
(100.287 -1.30685 0.749287)
(100.349 -1.26512 0.752906)
(100.394 -1.23609 0.756394)
(100.429 -1.21889 0.759617)
(100.455 -1.20704 0.762428)
(100.474 -1.198 0.765043)
(100.486 -1.19193 0.767731)
(100.492 -1.18891 0.770604)
(100.495 -1.18849 0.773622)
(100.496 -1.19009 0.776653)
(100.494 -1.19319 0.779515)
(100.491 -1.19737 0.782025)
(100.488 -1.20222 0.784023)
(100.484 -1.20747 0.785372)
(100.48 -1.21294 0.785956)
(100.477 -1.21861 0.785672)
(100.475 -1.22449 0.784425)
(100.474 -1.23063 0.782149)
(100.477 -1.23694 0.77886)
(100.484 -1.24282 0.774856)
(99.9948 0.0358732 0.007031)
(99.9766 0.0729397 0.014581)
(99.9421 0.113623 0.0234268)
(99.8883 0.160032 0.0344809)
(99.8099 0.213438 0.0488374)
(99.6977 0.273423 0.0679442)
(99.5374 0.335904 0.093756)
(99.3085 0.388555 0.128821)
(98.9823 0.402029 0.176344)
(98.4949 0.204485 0.240108)
(98.2373 0.0218643 0.27237)
(97.8945 -0.638464 0.347788)
(97.957 -1.43928 0.429965)
(98.4261 -1.96231 0.508701)
(98.9146 -2.12133 0.571477)
(99.2983 -2.15999 0.616042)
(99.6063 -2.128 0.646173)
(99.8393 -2.06013 0.66593)
(100.013 -1.98294 0.678658)
(100.146 -1.90942 0.686726)
(100.312 -1.93189 0.813118)
(100.364 -1.8477 0.815151)
(100.389 -1.78206 0.815436)
(100.406 -1.73738 0.815715)
(100.421 -1.70574 0.81698)
(100.428 -1.68469 0.819369)
(100.426 -1.67316 0.822678)
(100.416 -1.66937 0.826606)
(100.401 -1.67138 0.830794)
(100.381 -1.67755 0.83485)
(100.357 -1.68653 0.838404)
(100.33 -1.69722 0.841133)
(100.3 -1.7088 0.842794)
(100.27 -1.72073 0.843208)
(100.238 -1.73268 0.842258)
(100.206 -1.74458 0.83986)
(100.175 -1.75651 0.835933)
(100.146 -1.76866 0.8304)
(100.12 -1.78104 0.823244)
(100.094 -1.79251 0.814747)
(99.9959 0.0436884 0.00616401)
(99.9811 0.0893402 0.0127646)
(99.9528 0.140678 0.0204902)
(99.9076 0.201526 0.0301744)
(99.8393 0.275706 0.0428345)
(99.7366 0.366933 0.0598419)
(99.5801 0.477984 0.0831224)
(99.3375 0.607489 0.11529)
(98.9046 0.742043 0.159784)
(98.5627 0.744877 0.185028)
(97.7588 0.355315 0.24905)
(96.9584 -0.704803 0.33311)
(97.0416 -2.34488 0.433249)
(98.1392 -2.96518 0.524585)
(98.8415 -3.01418 0.586364)
(99.3013 -2.98536 0.621975)
(99.6564 -2.87756 0.643245)
(99.8951 -2.75078 0.657716)
(100.058 -2.63094 0.668956)
(100.169 -2.52889 0.678039)
(100.253 -2.46458 0.683826)
(100.195 -2.5713 0.808161)
(100.097 -2.52841 0.799193)
(100.001 -2.47697 0.787731)
(99.9105 -2.4276 0.777374)
(99.8174 -2.38869 0.769151)
(99.7195 -2.36104 0.762795)
(99.6184 -2.34275 0.757807)
(99.5153 -2.33188 0.753645)
(99.4114 -2.32679 0.749745)
(99.3079 -2.326 0.745568)
(99.2057 -2.32825 0.740655)
(99.106 -2.33255 0.734659)
(99.0096 -2.33823 0.727354)
(98.9173 -2.34487 0.718616)
(98.8296 -2.35227 0.70838)
(98.7473 -2.36052 0.696555)
(98.6715 -2.37 0.683002)
(98.6043 -2.38174 0.667571)
(98.5415 -2.39818 0.650633)
(99.9973 0.0490025 0.00508874)
(99.9876 0.100696 0.0105143)
(99.9687 0.160081 0.0168013)
(99.9377 0.232802 0.0246181)
(99.8893 0.325695 0.0347683)
(99.8131 0.447999 0.048312)
(99.69 0.613174 0.0666983)
(99.4836 0.841177 0.0918514)
(99.0703 1.16287 0.126187)
(98.6626 1.32258 0.146571)
(97.7116 1.46173 0.174506)
(95.6088 0.6941 0.230652)
(94.3926 -3.43497 0.338093)
(98.1659 -4.73716 0.443275)
(98.6758 -3.9896 0.466146)
(99.2481 -3.94225 0.438201)
(99.6181 -3.735 0.414844)
(99.7541 -3.52527 0.410934)
(99.7591 -3.35605 0.432495)
(99.6797 -3.19232 0.476469)
(98.5376 -2.89096 0.564364)
(95.0734 -2.56354 0.399128)
(95.1872 -2.57613 0.389856)
(95.3038 -2.5599 0.381456)
(95.3953 -2.53845 0.374647)
(95.465 -2.52468 0.369708)
(95.5209 -2.52039 0.366124)
(95.5676 -2.52423 0.363265)
(95.6074 -2.53447 0.360628)
(95.6427 -2.54929 0.357782)
(95.6756 -2.56691 0.354349)
(95.7081 -2.58578 0.350045)
(95.7416 -2.60475 0.344625)
(95.7773 -2.62304 0.337951)
(95.8158 -2.64024 0.329943)
(95.8572 -2.65617 0.320509)
(95.9016 -2.67087 0.309447)
(95.9485 -2.68472 0.296333)
(95.9969 -2.69879 0.280344)
(96.057 -2.7163 0.259942)
(99.9991 0.0509154 0.0039298)
(99.9957 0.105006 0.00797562)
(99.9889 0.168094 0.012555)
(99.9772 0.247052 0.0180995)
(99.958 0.350853 0.0250624)
(99.9267 0.492934 0.0339724)
(99.8749 0.695024 0.0454294)
(99.788 0.995173 0.0598969)
(99.6177 1.46581 0.0771753)
(99.3506 1.86285 0.0872546)
(98.6328 2.79373 0.0974717)
(95.4927 5.77996 0.119912)
(77.2179 -4.37859 0.232462)
(64.2009 -7.41209 0.1681)
(77.2909 -4.96572 0.207488)
(81.3115 -4.22626 -0.0565169)
(84.5673 -4.00203 -0.293495)
(87.0172 -3.88329 -0.462142)
(88.6909 -3.77649 -0.574481)
(93.0595 -3.80766 -0.618796)
(96.3592 -3.39953 -0.685292)
(96.4011 -3.25416 -0.664562)
(96.4695 -3.14452 -0.639392)
(96.5338 -3.06247 -0.615906)
(96.6028 -3.00017 -0.595295)
(96.683 -2.95314 -0.577402)
(96.7733 -2.91832 -0.561968)
(96.8699 -2.89311 -0.548623)
(96.9693 -2.87518 -0.536914)
(97.069 -2.86255 -0.52642)
(97.1673 -2.85359 -0.516819)
(97.2635 -2.847 -0.507892)
(97.3568 -2.84177 -0.499561)
(97.4471 -2.83713 -0.491862)
(97.5342 -2.83252 -0.484979)
(97.6181 -2.82744 -0.479324)
(97.6984 -2.82136 -0.475568)
(97.7746 -2.8134 -0.474822)
(97.8607 -2.80141 -0.478823)
(100.001 0.048849 0.0027013)
(100.004 0.100939 0.00534022)
(100.011 0.162159 0.00813177)
(100.02 0.239472 0.0112357)
(100.035 0.342023 0.0147138)
(100.056 0.483279 0.0184889)
(100.09 0.684347 0.0221651)
(100.152 0.980466 0.0246203)
(100.295 1.43298 0.0230824)
(100.344 1.83972 0.0209393)
(100.619 2.81739 0.00934341)
(102.442 5.33328 -0.0252595)
(111.096 3.9555 -0.0659909)
(109.058 -6.71162 -0.234525)
(102.779 -6.85141 -0.343308)
(101.148 -5.03311 -0.40395)
(100.711 -4.04076 -0.444651)
(100.54 -3.50086 -0.473501)
(100.45 -3.18376 -0.494568)
(100.375 -2.9899 -0.510631)
(100.265 -2.75157 -0.604426)
(100.276 -2.3187 -0.760656)
(100.256 -2.19702 -0.752824)
(100.24 -2.12523 -0.740865)
(100.227 -2.08549 -0.729771)
(100.217 -2.06369 -0.720667)
(100.209 -2.05353 -0.713403)
(100.204 -2.05165 -0.707881)
(100.201 -2.05534 -0.704015)
(100.2 -2.06233 -0.701602)
(100.2 -2.07092 -0.700382)
(100.201 -2.07992 -0.700086)
(100.202 -2.0885 -0.700469)
(100.204 -2.09614 -0.701314)
(100.206 -2.10246 -0.702527)
(100.209 -2.10718 -0.704128)
(100.211 -2.11002 -0.706314)
(100.214 -2.11051 -0.709454)
(100.218 -2.10771 -0.714031)
(100.23 -2.09946 -0.720135)
(100.003 0.0427574 0.0014429)
(100.013 0.0884423 0.00276597)
(100.031 0.142152 0.00388551)
(100.061 0.209864 0.00468731)
(100.105 0.299056 0.00488701)
(100.171 0.419753 0.00388955)
(100.273 0.585898 0.000538165)
(100.437 0.81654 -0.00731114)
(100.75 1.13545 -0.0236539)
(100.974 1.37118 -0.0349157)
(101.818 1.81903 -0.073595)
(103.426 1.71104 -0.146032)
(105.198 -0.2969 -0.253379)
(104.736 -2.87277 -0.376141)
(102.953 -3.60385 -0.476659)
(101.743 -3.38278 -0.546248)
(101.12 -3.02759 -0.590178)
(100.788 -2.72516 -0.614908)
(100.597 -2.49442 -0.627502)
(100.471 -2.31918 -0.633076)
(100.383 -2.17563 -0.634247)
(100.288 -1.85725 -0.775508)
(100.257 -1.81463 -0.768755)
(100.236 -1.78508 -0.76124)
(100.224 -1.76581 -0.754385)
(100.216 -1.7529 -0.748524)
(100.211 -1.74417 -0.743625)
(100.207 -1.73857 -0.739637)
(100.204 -1.73519 -0.736473)
(100.203 -1.73313 -0.733988)
(100.201 -1.73156 -0.732028)
(100.2 -1.7299 -0.73045)
(100.2 -1.72768 -0.729157)
(100.2 -1.72458 -0.728074)
(100.201 -1.72034 -0.72723)
(100.202 -1.71479 -0.726726)
(100.205 -1.70778 -0.726767)
(100.209 -1.69914 -0.727667)
(100.217 -1.6888 -0.729811)
(100.233 -1.67737 -0.733559)
(100.004 0.0331438 0.000450708)
(100.019 0.0685474 0.00064719)
(100.048 0.110047 0.00033849)
(100.093 0.161998 -0.000780482)
(100.159 0.229326 -0.00325076)
(100.257 0.31783 -0.00800054)
(100.4 0.433654 -0.0165755)
(100.614 0.581063 -0.0315087)
(100.941 0.755991 -0.0568709)
(101.417 0.83676 -0.0982499)
(102.044 0.73752 -0.16136)
(102.709 0.212855 -0.250794)
(103.058 -0.760369 -0.359702)
(102.808 -1.58108 -0.476512)
(102.171 -1.88319 -0.575624)
(101.551 -1.88379 -0.646308)
(101.114 -1.79345 -0.690967)
(100.833 -1.68397 -0.716806)
(100.648 -1.57909 -0.730614)
(100.519 -1.48535 -0.736783)
(100.432 -1.4038 -0.737923)
(100.375 -1.33127 -0.735543)
(100.336 -1.27353 -0.732588)
(100.309 -1.22752 -0.729807)
(100.289 -1.1922 -0.727269)
(100.275 -1.1661 -0.725199)
(100.263 -1.14737 -0.723839)
(100.253 -1.13436 -0.723277)
(100.245 -1.12569 -0.723456)
(100.238 -1.12014 -0.724235)
(100.232 -1.11666 -0.725444)
(100.226 -1.1144 -0.726909)
(100.222 -1.11269 -0.72848)
(100.218 -1.11102 -0.730039)
(100.215 -1.10897 -0.731553)
(100.214 -1.10626 -0.733056)
(100.214 -1.10265 -0.734673)
(100.217 -1.09799 -0.736618)
(100.222 -1.09231 -0.739162)
(100.231 -1.086 -0.742507)
(100.005 0.0209058 -0.000301219)
(100.024 0.0431954 -0.000935863)
(100.059 0.0692803 -0.00226047)
(100.114 0.101617 -0.00471027)
(100.194 0.142859 -0.0090189)
(100.308 0.19554 -0.0162192)
(100.468 0.261084 -0.0279316)
(100.691 0.337042 -0.0465071)
(100.993 0.410477 -0.0751542)
(101.384 0.442726 -0.117757)
(101.837 0.378058 -0.178113)
(102.255 0.142844 -0.258003)
(102.47 -0.273398 -0.352594)
(102.352 -0.695587 -0.449913)
(101.966 -0.931753 -0.535922)
(101.516 -0.985928 -0.601002)
(101.146 -0.953737 -0.644887)
(100.881 -0.896898 -0.672268)
(100.693 -0.838071 -0.688311)
(100.556 -0.78392 -0.696792)
(100.456 -0.737509 -0.700267)
(100.384 -0.702033 -0.700645)
(100.332 -0.677301 -0.69979)
(100.295 -0.660976 -0.698511)
(100.269 -0.651254 -0.69716)
(100.249 -0.646657 -0.696038)
(100.235 -0.645723 -0.695363)
(100.224 -0.647206 -0.695198)
(100.216 -0.650188 -0.69548)
(100.209 -0.653976 -0.696078)
(100.204 -0.658004 -0.696838)
(100.2 -0.661846 -0.697612)
(100.196 -0.665171 -0.698276)
(100.194 -0.667762 -0.698755)
(100.192 -0.669421 -0.699075)
(100.192 -0.670086 -0.699261)
(100.193 -0.669717 -0.699426)
(100.196 -0.668338 -0.699788)
(100.203 -0.666047 -0.700663)
(100.217 -0.663039 -0.702478)
(100.006 0.00713039 -0.000723278)
(100.026 0.0147319 -0.00176879)
(100.065 0.0235997 -0.00366596)
(100.124 0.034519 -0.00675037)
(100.21 0.0483172 -0.0120252)
(100.331 0.0656759 -0.020401)
(100.496 0.086604 -0.0335002)
(100.717 0.109638 -0.0535099)
(101.001 0.129574 -0.0833525)
(101.34 0.13413 -0.125742)
(101.703 0.103663 -0.183079)
(102.013 0.0181107 -0.255596)
(102.171 -0.1187 -0.339202)
(102.101 -0.260074 -0.424875)
(101.829 -0.348713 -0.501931)
(101.473 -0.375411 -0.563003)
(101.146 -0.368493 -0.606125)
(100.892 -0.351787 -0.633998)
(100.704 -0.334241 -0.650882)
(100.564 -0.318104 -0.66025)
(100.461 -0.30427 -0.664683)
(100.386 -0.2933 -0.666088)
(100.333 -0.284565 -0.665978)
(100.295 -0.277295 -0.665321)
(100.269 -0.270967 -0.664816)
(100.25 -0.265305 -0.664733)
(100.236 -0.260102 -0.665166)
(100.226 -0.255225 -0.666122)
(100.217 -0.250612 -0.667522)
(100.21 -0.246232 -0.669226)
(100.204 -0.242054 -0.671065)
(100.198 -0.238045 -0.672871)
(100.193 -0.234173 -0.674493)
(100.189 -0.230406 -0.675789)
(100.187 -0.226683 -0.676969)
(100.185 -0.222998 -0.677905)
(100.185 -0.21935 -0.678662)
(100.188 -0.215762 -0.679447)
(100.192 -0.212379 -0.680561)
(100.202 -0.209758 -0.68241)
(99.9941 0.00530732 0.0128965)
(99.9739 0.0106385 0.0268305)
(99.9366 0.0161842 0.0430474)
(99.8816 0.0220025 0.0630061)
(99.8075 0.0278645 0.0883026)
(99.7122 0.0330584 0.120842)
(99.5952 0.0360403 0.162676)
(99.4587 0.0340202 0.216101)
(99.311 0.0225501 0.283198)
(99.17 -0.00433944 0.364959)
(99.0661 -0.0521114 0.46054)
(99.0363 -0.118443 0.56599)
(99.104 -0.185759 0.673843)
(99.26 -0.235827 0.775457)
(99.4634 -0.259705 0.862872)
(99.6698 -0.266739 0.932975)
(99.8548 -0.264899 0.986166)
(100.012 -0.258198 1.02488)
(100.141 -0.249083 1.05206)
(100.245 -0.239609 1.07054)
(100.325 -0.230733 1.08274)
(100.386 -0.222739 1.091)
(100.43 -0.215933 1.09739)
(100.461 -0.210922 1.10311)
(100.483 -0.207704 1.1087)
(100.498 -0.205875 1.11437)
(100.508 -0.205128 1.12015)
(100.515 -0.205238 1.12612)
(100.519 -0.205973 1.13229)
(100.522 -0.207111 1.13854)
(100.524 -0.208478 1.14468)
(100.526 -0.20995 1.1505)
(100.529 -0.211425 1.15585)
(100.532 -0.21283 1.16054)
(100.537 -0.214113 1.16438)
(100.542 -0.215271 1.16717)
(100.549 -0.216318 1.16872)
(100.557 -0.217278 1.16888)
(100.568 -0.218216 1.16742)
(100.585 -0.219299 1.16397)
(99.9943 0.0157597 0.0125906)
(99.9746 0.0316891 0.026184)
(99.9379 0.048439 0.0420612)
(99.8832 0.0663121 0.0616905)
(99.8082 0.0848263 0.0867299)
(99.7099 0.102133 0.119232)
(99.5852 0.113939 0.16158)
(99.4338 0.11204 0.216526)
(99.2607 0.0826259 0.286819)
(99.0828 0.00597721 0.374418)
(98.9379 -0.134348 0.479124)
(98.8873 -0.332 0.598141)