/*--------------------------------*- C++ -*----------------------------------*\
| =========                 |                                                 |
| \\      /  F ield         | OpenFOAM: The Open Source CFD Toolbox           |
|  \\    /   O peration     | Version:  2306                                  |
|   \\  /    A nd           | Website:  www.openfoam.com                      |
|    \\/     M anipulation  |                                                 |
\*---------------------------------------------------------------------------*/
FoamFile
{
    version     2.0;
    format      ascii;
    arch        "LSB;label=32;scalar=64";
    class       volVectorField;
    location    "1.7";
    object      Force;
}
// * * * * * * * * * * * * * * * * * * * * * * * * * * * * * * * * * * * * * //

dimensions      [1 1 -2 0 0 0 0];

internalField   uniform (0 0 0);

boundaryField
{
    walls
    {
        type            calculated;
        value           uniform (0 0 0);
    }
    inlet
    {
        type            calculated;
        value           uniform (0 0 0);
    }
    outlet
    {
        type            calculated;
        value           uniform (0 0 0);
    }
    NASA
    {
        type            calculated;
        value           nonuniform List<vector> 
14179
(
(-0.0140917 -0.129667 1.35978e-06)
(-0.0125154 -0.103538 6.1917e-07)
(-0.0642289 -0.519855 0.000125493)
(-0.0999304 -0.803629 0.00026862)
(-0.0632529 -0.51238 6.74646e-05)
(-0.109041 -0.87675 0.000340221)
(0.210177 0.912379 -6.7357e-05)
(0.0779343 0.391215 -2.28256e-05)
(0.652376 3.19795 0.00466828)
(0.0885351 0.444461 -2.27328e-05)
(0.001748 0.00633941 -1.31497e-06)
(-0.0177603 -0.145181 9.28573e-05)
(0.130872 0.653449 -0.000197738)
(-0.0353822 -0.32174 0.00032517)
(0.0620247 0.309558 -7.83198e-05)
(1.38045 0.931179 0.00281035)
(1.39013 0.921119 -0.000164763)
(0.0246167 0.138501 -1.32953e-05)
(0.159284 0.94511 -6.98277e-05)
(1.28198 0.849698 0.00036047)
(-0.0166666 -0.233319 -1.67431e-05)
(-0.0206416 -0.192044 -0.000141782)
(-0.0190686 -0.264886 -0.000257768)
(-0.00818681 -0.0597239 3.81687e-07)
(-0.012676 -0.104927 6.21359e-06)
(-0.0088474 -0.0645386 7.57768e-06)
(-0.0129328 -0.106503 0.000140744)
(-0.0151026 -0.10823 0.00014797)
(-0.0133 -0.121454 0.000163041)
(-0.0156059 -0.214117 0.00329785)
(0.047466 0.207289 3.96436e-05)
(0.0536614 0.253034 1.10074e-05)
(0.0576836 0.272008 -5.13815e-05)
(0.0468037 0.203893 -1.51289e-05)
(0.0574764 0.210907 -1.62163e-05)
(0.0553658 0.202934 -2.70939e-05)
(0.0308345 0.111901 -9.92266e-06)
(0.0297497 0.107839 -1.88698e-05)
(-0.00187137 -0.00902524 0.000127004)
(-0.0130415 -0.0634535 0.000541259)
(0.170039 0.620908 5.89473e-05)
(0.0995423 0.358823 0.000376574)
(0.0972578 0.488023 5.51364e-06)
(-0.00553449 -0.0390189 1.72701e-06)
(-0.0050647 -0.0356961 -6.46393e-06)
(0.158614 0.796532 9.56268e-06)
(-0.00976621 -0.0675537 0.000126468)
(0.0973611 0.48594 0.000240397)
(0.0905127 0.452156 0.000114437)
(0.108815 0.444582 -0.000307088)
(0.0850446 0.31614 -1.36602e-05)
(0.0847122 0.314885 -1.7174e-05)
(-0.0630715 1.54101 -0.000105261)
(1.38942 0.923683 -0.000710283)
(-0.0617132 1.51678 8.74814e-05)
(-0.0025973 1.30468 -9.10456e-05)
(0.0643549 0.973732 4.37251e-05)
(0.0627072 0.946993 -4.90297e-05)
(-0.00245574 1.21697 5.56783e-06)
(0.0990336 0.389322 -3.92034e-05)
(0.158547 0.940242 -4.35749e-05)
(0.00794451 0.0289141 8.6306e-05)
(-0.0228519 0.567731 0.00020012)
(0.927438 0.632723 0.0786156)
(-0.00072281 0.534067 -0.00010648)
(0.0270838 0.411542 4.09016e-05)
(0.127826 0.74799 0.00830176)
(-0.0142453 -0.1426 3.32098e-06)
(-0.0140343 -0.129218 1.59726e-06)
(-0.0982538 -0.790266 0.000262207)
(-0.0109739 -0.0871124 1.1496e-06)
(-0.0124917 -0.103348 1.19027e-06)
(1.32699 0.878506 -0.000277641)
(1.27984 0.847553 -5.26717e-05)
(0.346772 2.05542 -0.00100432)
(0.261336 1.54358 -0.000478343)
(-0.110477 -0.889396 -0.00113932)
(-0.0559257 -0.348041 0.00016538)
(-0.0551208 -0.345118 0.000140661)
(-0.0419603 -0.246176 0.000140056)
(0.157117 0.677893 -0.000285293)
(0.176228 0.761796 -0.000301491)
(0.764662 1.31284 -5.9932e-05)
(0.765074 1.31153 -0.000338982)
(0.0827802 0.415436 -4.96384e-07)
(0.0724266 0.34793 -1.62101e-05)
(0.000222074 -0.00011075 -1.07716e-06)
(0.00198597 0.0105956 -9.86417e-09)
(0.00202359 0.0108121 -1.49724e-06)
(0.000230404 -5.36717e-05 4.21712e-08)
(0.09381 0.470928 2.16569e-05)
(0.0924503 0.476856 -1.21919e-05)
(-0.0200156 -0.163554 9.41288e-05)
(-0.0134238 -0.0961225 7.15132e-05)
(-0.0202563 -0.14463 8.25108e-05)
(-0.0122462 -0.0843931 6.85887e-05)
(-0.0180194 -0.123553 2.83908e-05)
(0.0858904 0.428498 -0.000205708)
(-0.0200021 -0.18193 8.82793e-05)
(-0.024563 -0.337848 0.000487475)
(-0.0207994 -0.292139 -0.000437075)
(0.0805608 0.402274 -0.000163968)
(1.37756 0.925118 -0.00271575)
(0.102388 0.603697 -2.41913e-05)
(0.11452 0.640448 -6.60797e-06)
(0.115077 0.643431 -2.22471e-05)
(0.193682 1.34866 -1.42781e-05)
(0.0984125 0.583783 -1.28658e-05)
(0.158329 0.93939 -2.57775e-05)
(0.0223276 0.0210982 8.98977e-06)
(0.305164 -0.112449 0.00306371)
(0.330692 -0.131098 0.00155835)
(0.0148028 0.0142289 -4.19942e-05)
(-0.00641663 -0.0275837 8.63343e-05)
(0.0220422 0.0812521 2.45695e-05)
(0.00274138 0.00950554 6.85967e-05)
(0.0223187 0.0898173 0.000119333)
(-0.00925749 -0.0413299 3.72165e-05)
(-0.00151401 -0.00883457 8.41621e-05)
(0.00454975 0.0190152 3.96731e-05)
(-0.0179861 -0.0869869 4.30386e-05)
(-0.00104596 0.730982 -0.000166282)
(0.0407888 0.608954 -0.000184909)
(-0.00152796 0.97921 -0.000264521)
(0.031844 0.481974 -0.000470937)
(-0.0346656 0.867198 -0.000409734)
(1.10728 0.744811 -3.4869e-05)
(-0.0469708 1.16274 -0.000300753)
(0.110077 0.651263 -0.00121209)
(0.157078 0.615021 -0.000465277)
(0.118017 0.461476 -9.71585e-05)
(0.108834 0.397076 -5.90951e-05)
(0.154111 0.562961 -0.000108423)
(0.0633749 0.228632 -3.13117e-05)
(0.0866731 0.313208 -0.000125625)
(-0.0128663 -0.145026 -4.73994e-06)
(-0.0165549 -0.231448 -8.27926e-08)
(-0.010022 -0.0772906 1.14937e-06)
(-0.00804085 -0.0586626 -3.90691e-09)
(0.000279145 9.10227e-05 0.534038)
(-0.0129635 -0.101985 0.000138559)
(0.000253001 8.91959e-05 0.50772)
(-0.0144108 -0.109787 0.000155765)
(0.000536488 0.000248238 0.578167)
(-0.0130245 -0.130003 0.000242251)
(0.000757937 0.000700746 0.579342)
(-0.0121315 -0.139639 0.00104648)
(0.0534424 0.251994 -1.17845e-05)
(0.0397707 0.180888 -2.87657e-06)
(0.0400869 0.182345 -8.34943e-06)
(0.0470318 0.204842 -5.70641e-06)
(0.0463421 0.204144 -5.23403e-06)
(0.0465837 0.205214 -8.29613e-06)
(0.0578113 0.212055 -2.88979e-05)
(0.0246126 0.122441 -6.20893e-06)
(0.0220826 0.112071 -5.28005e-06)
(0.0315635 0.114512 -1.64674e-05)
(0.0281399 0.0990229 -1.09987e-05)
(-0.00632948 -0.0289938 0.000187707)
(-0.00540017 -0.0257366 0.00021989)
(0.000229483 4.34254e-05 0.322699)
(0.000236573 2.42327e-05 0.316096)
(0.000230051 2.1083e-05 0.312001)
(0.000278102 4.60655e-05 0.359106)
(0.094154 0.320797 0.000579164)
(0.16047 0.56104 0.0043596)
(-4.3386e-05 0.000133623 0.339224)
(0.00016921 -0.000224458 0.30724)
(0.000120122 3.08776e-05 0.108998)
(0.0821698 0.288442 0.00032539)
(0.286271 0.665013 -6.3025e-07)
(0.168625 0.594471 6.7662e-05)
(0.166934 0.588543 -1.35162e-05)
(0.0781686 0.365049 -1.58829e-05)
(0.08054 0.376115 -2.31156e-05)
(0.121004 0.577933 -2.62407e-05)
(0.082241 0.366219 -3.16199e-05)
(0.0834927 0.378963 -1.4913e-05)
(0.0869626 0.394603 -2.90377e-05)
(0.0798981 0.355925 -1.19806e-05)
(-0.00401105 -0.0286078 -9.6951e-07)
(-0.00546407 -0.0385265 -1.05813e-06)
(0.159404 0.844481 -4.70514e-07)
(0.269152 0.464135 0.01173)
(0.000507888 0.00197489 0.867341)
(0.000349698 0.000794459 0.414129)
(0.0492696 0.143304 0.000238791)
(-0.0118273 -0.0737715 0.00018778)
(-0.0118612 -0.0748583 0.00033126)
(0.000604576 0.00070143 0.678977)
(0.000174491 -0.000203445 0.31154)
(0.0964381 0.494923 0.0012281)
(0.000306894 -0.000330727 0.375232)
(0.140283 0.737202 0.00580495)
(0.000360626 0.000159157 0.347987)
(0.000218737 2.34779e-05 0.33009)
(-0.000537742 -0.000340246 0.353091)
(6.86104e-05 0.000115392 0.112906)
(0.0806869 0.385476 6.86739e-05)
(0.103347 0.480064 0.00112219)
(0.000334731 -0.000114607 0.206634)
(9.32887e-05 0.000224009 0.108278)
(0.169794 0.713487 0.00231584)
(0.0850721 0.31623 -1.0186e-05)
(0.0810905 0.310422 -1.79868e-05)
(0.0969247 0.395127 -1.85506e-05)
(0.0679528 0.273692 -4.79603e-06)
(-0.885751 2.83179 -0.0217547)
(-0.0631153 1.54667 -5.70809e-05)
(-0.194146 1.81475 0.000781979)
(0.0616553 0.930988 -5.76863e-05)
(0.0476639 1.02011 -4.33778e-05)
(-0.00257382 1.28683 -1.77274e-05)
(0.0277279 1.04795 -2.564e-05)
(0.10349 1.13622 -2.71847e-05)
(0.129202 1.66874 -5.45583e-05)
(0.123885 1.59961 -4.69427e-05)
(0.104708 1.15005 -5.32804e-05)
(0.122322 1.24985 -4.45804e-05)
(0.133338 1.24087 1.22247e-05)
(0.134376 1.25093 -7.25661e-05)
(0.121874 1.2449 1.04745e-05)
(0.0694322 0.287772 -3.05385e-05)
(0.0637175 0.252913 -2.80049e-05)
(0.10169 0.399701 -3.90454e-05)
(0.116642 0.790243 -3.06374e-05)
(0.105258 0.663016 -9.68415e-06)
(-0.000673113 -0.000850691 0.568712)
(0.000466381 0.00125417 0.896937)
(0.00144506 0.00487703 0.00013561)
(-5.24109e-05 0.00184853 0.742039)
(0.00256938 0.00895019 0.000135677)
(0.000163271 0.00947589 0.273986)
(-0.0607451 0.583228 -0.00036314)
(0.00704926 -0.00498546 1.75033)
(0.00019294 0.000107035 0.30435)
(0.014207 0.518707 -0.000156059)
(0.000588667 -0.000253761 0.245397)
(0.0233291 0.487862 -6.94399e-06)
(0.0616012 0.529847 -0.000148575)
(0.0613464 0.520111 -0.000114466)
(0.00024403 9.73844e-05 0.244772)
(0.000266648 0.00010483 0.269218)
(0.0577384 0.532542 -5.14211e-05)
(0.0524633 0.529095 0.000232455)
(0.0474401 0.519177 0.0015513)
(1.79711e-05 -0.00103881 0.223547)
(-0.0192407 -0.105606 0.00103172)
(-0.000120501 7.63951e-05 0.50319)
(0.0919105 0.511 0.000273459)
(0.000226383 1.58422e-05 0.321397)
(0.00022989 1.73426e-05 0.32292)
(0.477065 -0.190064 -0.00398763)
(0.227832 0.215417 0.00254403)
(0.00016745 2.0671e-07 0.0814274)
(-0.051966 -0.511387 0.000169849)
(-0.0677545 -0.547641 0.000187164)
(-0.0547331 -0.537916 0.000181785)
(-0.068132 -0.550635 0.000189399)
(-0.0735784 -0.593828 0.000206712)
(-0.0583337 -0.572617 0.000180338)
(-0.0817464 -0.658752 0.00021454)
(0.178939 0.774379 -0.00031735)
(0.449537 2.20105 -0.000735204)
(0.18249 0.790182 -0.000320471)
(0.428792 2.09889 -0.000709308)
(-0.0633325 -0.512911 7.68476e-05)
(-0.0414653 -0.258637 0.00010417)
(-0.104247 -0.838032 0.000287505)
(-0.0472195 -0.294067 0.000120464)
(1.39295 0.922934 -0.000253551)
(1.39047 0.921316 -0.000144355)
(0.217982 0.946456 -6.50888e-05)
(0.649737 3.18865 -0.000349403)
(0.596321 2.92546 -0.000196384)
(0.246829 1.0719 -0.000105698)
(0.384961 2.28189 -0.000197513)
(0.46029 2.72852 -0.000369627)
(0.00132827 0.00487117 -4.62979e-08)
(0.0017738 0.00701104 -4.97671e-07)
(0.0246038 0.13952 -2.12973e-05)
(0.0250301 0.141431 -1.53873e-05)
(0.0503363 0.218465 4.76571e-05)
(0.0369851 0.168003 3.7569e-05)
(0.0603901 0.26285 1.89507e-05)
(0.0288307 0.130046 6.38497e-05)
(-0.108223 -0.870764 0.000352893)
(-0.0688155 -0.500016 0.000196921)
(0.0184684 0.0869604 9.50976e-05)
(-0.0103268 -0.0574416 8.19522e-05)
(0.06363 0.232007 -0.000103186)
(0.0716432 0.26119 -9.25746e-05)
(0.0345756 0.124623 -5.71129e-05)
(0.0400344 0.144291 -5.14146e-05)
(0.273966 1.2392 -0.000116594)
(0.177034 0.767701 1.88018e-05)
(0.305699 1.4451 -0.000175289)
(0.142937 0.717123 -9.81318e-06)
(-0.0181559 -0.152966 0.000151204)
(-0.0406336 -0.301702 0.000259063)
(-0.00661992 -0.0484436 -1.71811e-05)
(0.00248016 0.0101507 -3.90829e-06)
(-0.0164145 -0.113061 1.05475e-05)
(-0.0217569 -0.153139 5.47498e-05)
(0.0977406 0.399647 0.000180498)
(0.0844691 0.313987 -3.50197e-05)
(0.0845889 0.314433 -2.36389e-05)
(0.109323 0.448495 -0.000631053)
(0.16719 0.734379 -0.000111569)
(0.143857 0.662966 6.03065e-05)
(0.174635 0.767622 -7.66572e-05)
(0.184253 0.859336 6.29773e-05)
(-0.0025181 1.23771 -7.38038e-05)
(0.0677662 1.02311 -0.000136594)
(-0.00240611 1.09453 -0.000109423)
(0.0666158 1.00636 -6.45283e-05)
(-0.0609927 1.49125 -7.71515e-05)
(1.39009 0.922426 -0.000356899)
(-0.0534985 1.30897 -0.000151374)
(0.493541 4.23244 -0.00131669)
(0.0974609 0.382832 -6.76517e-05)
(0.0837279 0.328786 -4.29328e-05)
(0.0582078 0.213357 7.77902e-06)
(0.0547808 0.200768 -2.24073e-05)
(0.0586288 0.307416 -6.27075e-05)
(0.187569 0.925981 -0.000983449)
(0.023732 0.132655 -5.505e-05)
(0.0493181 0.264797 -2.43852e-05)
(0.74906 4.68603 0.00296659)
(0.380093 2.53946 0.000816056)
(0.0300218 0.108846 2.0864e-07)
(0.0291266 0.105573 -1.32804e-05)
(1.26364 0.839472 0.00140064)
(0.0902985 0.625086 -0.000243271)
(0.253732 0.237993 6.42493e-05)
(0.498932 -0.206886 -9.36125e-05)
(0.240541 0.226324 -1.98799e-05)
(0.517702 -0.215037 -0.000363102)
(0.0566001 0.207515 -3.49417e-05)
(0.0266595 0.0937035 -1.89091e-05)
(0.030813 0.111731 -2.02003e-05)
(0.286102 0.664605 -1.32869e-05)
(0.276271 0.810935 -3.55605e-05)
(0.000416501 0.000894016 0.731226)
(0.000141599 0.000163489 0.363522)
(0.000302375 -0.000337135 0.384549)
(-0.196074 1.81808 -0.00014066)
(-0.0637534 1.55933 -4.37324e-05)
(1.3855 0.924464 -0.00143219)
(0.0258362 0.0244101 6.63047e-06)
(0.35522 -0.14598 0.000127859)
(0.345291 -0.140368 0.000552274)
(0.0288764 0.0272544 -3.29773e-07)
(0.000208386 -0.000307723 0.546762)
(0.000181826 -0.000179778 0.381521)
(0.000191688 2.62046e-05 0.342553)
(0.000366346 0.000151774 0.366421)
(-0.0891536 -0.71775 0.000231864)
(1.36374 0.902905 -0.000307595)
(1.35039 0.894049 -0.000294138)
(1.32337 0.876123 -0.00027799)
(1.3495 0.893451 -0.000292754)
(0.398283 1.94842 -0.000664094)
(0.175639 0.759453 -0.000307904)
(0.17759 0.768397 -0.000314381)
(0.420956 2.06034 -0.0007018)
(0.270868 1.60021 -0.000523943)
(0.289751 1.71209 -0.000526857)
(-0.0234586 -0.138761 7.07409e-05)
(-0.0302789 -0.17821 8.87082e-05)
(-0.0547377 -0.340507 0.000151125)
(-0.0492668 -0.306674 0.000128107)
(-0.0400344 -0.234801 0.000123987)
(-0.0328356 -0.193 9.69936e-05)
(0.253967 2.16013 -0.000622773)
(0.240971 2.04905 -0.000716714)
(0.0252622 0.0932298 1.72404e-05)
(0.0238054 0.0961415 -3.95032e-06)
(0.0354307 0.144027 0.0002116)
(0.0332947 0.123107 -2.87962e-06)
(0.00190795 0.00740137 6.97144e-05)
(0.0275554 0.117866 0.000133728)
(0.0367097 0.158495 7.94163e-05)
(0.0220095 0.097909 0.000117487)
(0.0412529 0.152713 -1.98743e-05)
(0.0455251 0.185595 0.000231683)
(0.0355708 0.131576 -8.24213e-06)
(0.0426479 0.636429 -0.000179984)
(-0.00161075 1.0223 -0.000275625)
(-0.00179895 1.12671 -0.000301666)
(0.0469664 0.701119 -0.000202536)
(-0.0543447 1.34408 -0.00035545)
(1.31424 0.870039 -0.000265663)
(-0.056827 1.40514 -0.000375026)
(-0.0487938 1.20757 -0.000316239)
(-0.0531461 1.31463 -0.000346634)
(1.31134 0.868116 -0.000266126)
(-0.00185206 1.15507 -0.000309765)
(0.0512931 0.766822 -0.000214958)
(-0.00195742 1.21164 -0.000327254)
(0.0482811 0.721235 -0.000180003)
(0.227146 1.34101 -0.000429684)
(0.411584 2.56266 -0.00281354)
(0.237874 1.58383 -0.000511657)
(0.247507 1.46154 -0.000512043)
(0.406213 2.53296 -0.000772264)
(0.378383 2.35836 -0.000749794)
(0.195845 1.30247 -0.00117216)
(-0.0806744 -0.592076 -0.000134716)
(-0.101401 -0.816458 0.000287376)
(-0.0660024 -0.438153 0.000186234)
(-0.0561352 -0.349809 0.00018854)
(-0.0794385 -0.532931 0.00014073)
(-0.0525186 -0.32818 0.000191587)
(-0.023328 -0.129926 0.000106536)
(-0.0438381 -0.257591 0.000174571)
(0.00522549 0.0194164 0.000241042)
(-0.0465183 -0.274685 0.000149166)
(0.231641 1.04085 -0.000401408)
(0.179901 0.777203 -0.000283607)
(0.238322 1.12292 -0.000401682)
(0.177772 0.768264 -0.000291791)
(0.22552 1.01666 -0.000379682)
(0.242018 1.13897 -0.000721936)
(0.368525 1.80081 -0.000715202)
(0.10585 0.413817 -0.000100902)
(0.0894977 0.349809 -0.000117576)
(0.0956483 0.348869 -7.02241e-05)
(0.0753843 0.274835 -8.72869e-05)
(0.0868949 0.339668 -0.000127883)
(0.0808679 0.316175 -0.00013519)
(0.0555848 0.200463 -3.71402e-05)
(0.0425916 0.153512 -4.84385e-05)
(0.124213 0.287898 -1.48658e-05)
(0.10547 0.244344 2.15921e-05)
(-0.0206286 -0.15632 9.86933e-05)
(-0.0180847 -0.129339 9.09592e-05)
(0.0814772 0.416419 -0.000441647)
(0.0860591 0.429533 -0.000135183)
(0.124491 0.657103 -0.000855347)
(-0.0191813 -0.189542 2.55375e-05)
(-0.019781 -0.180323 0.000101758)
(-0.0171043 -0.188172 -0.000216648)
(-0.0211046 -0.292729 8.39941e-05)
(0.0773634 0.370276 -0.000267201)
(0.081935 0.408991 -0.000116678)
(-0.00402312 -0.0170237 5.89054e-05)
(0.00613729 0.0236877 0.000106587)
(-0.000497257 -0.00269655 7.07098e-05)
(0.0130198 0.0476954 5.87778e-05)
(0.0176576 0.647447 -0.00016474)
(-0.00125883 0.844396 -0.000252296)
(0.0269146 0.567337 -0.000215549)
(0.0361132 0.540351 -0.000244806)
(-0.105262 1.00149 -0.00172761)
(-0.0409727 1.01702 -0.000337988)
(1.22732 0.819603 0.00288388)
(-0.460698 1.49955 -0.000164963)
(-0.0448371 1.11085 -0.000309621)
(-0.140715 1.31025 -0.000307496)
(-0.0117857 -0.0615945 8.29006e-05)
(-0.00858629 -0.0442027 7.03644e-05)
(-0.0103791 -0.0531775 7.95773e-05)
(-0.00996269 -0.0522745 7.48449e-05)
(-0.0247855 -0.136052 -1.8127e-05)
(0.00061152 0.000382136 0.388566)
(0.0584811 0.393407 -0.000139106)
(0.0923396 0.639316 -0.000345379)
(0.0605753 0.407228 -0.000210232)
(0.127068 0.463757 -5.2193e-05)
(0.154467 0.564035 -8.02966e-05)
(0.0733112 0.264569 -2.53485e-05)
(0.0620976 0.217227 -2.82563e-05)
(0.0818266 0.286794 -0.000220801)
(0.089629 0.323661 -5.58308e-05)
(0.446816 -0.186728 -0.0028454)
(0.217108 0.19937 0.000913071)
(0.26461 0.246118 0.000265416)
(0.52107 -0.217395 -0.00118968)
(0.225535 0.977779 -0.000342698)
(0.574267 2.81456 -0.000954988)
(0.22652 0.982242 -0.000329066)
(0.555961 2.72454 -0.000937312)
(-0.0637692 -0.516258 0.000105903)
(0.000543464 7.49608e-05 1.88348e-06)
(0.000911066 0.00234452 8.0554e-07)
(0.200485 0.870443 -0.000150484)
(0.654521 3.21151 -0.00078243)
(0.237428 1.03077 -0.000224721)
(-0.0606826 -0.441134 0.000151625)
(0.180077 0.791816 -0.000131009)
(0.146677 0.67695 -0.00012067)
(0.180148 0.792126 -0.000148415)
(0.146661 0.676836 -0.000110753)
(0.0715538 0.262369 -7.74956e-06)
(0.0769953 0.282285 2.923e-05)
(-0.0314793 -0.231216 3.23832e-05)
(0.166867 0.826008 -0.000141664)
(0.0661737 0.348099 -5.73491e-05)
(0.0422959 0.153404 3.22811e-06)
(0.0419403 0.152083 2.24968e-05)
(1.39036 0.921388 -0.000173441)
(0.0249232 0.0234144 -6.6035e-06)
(0.364379 -0.151197 -8.43606e-06)
(0.0235564 0.022119 -5.6713e-06)
(0.360219 -0.149408 -1.2168e-05)
(-0.0201512 -0.127398 5.18086e-05)
(-0.022668 -0.142896 5.76383e-05)
(-0.0393777 -0.245783 9.87081e-05)
(-0.0940912 -0.75709 0.000247283)
(-0.0343331 -0.214721 8.55365e-05)
(0.184454 0.798858 -0.000324569)
(0.196069 0.849899 -0.000332004)
(0.103362 0.452341 -8.37427e-05)
(0.0777154 0.356722 -6.48424e-05)
(0.106906 0.467965 -9.14919e-05)
(0.0743628 0.341199 -5.66147e-05)
(0.0440162 0.200676 1.5375e-05)
(0.0689977 0.300834 -2.17095e-06)
(0.0758961 0.331261 -2.01026e-05)
(0.0499047 0.227987 -1.70345e-06)
(0.0578928 0.211773 -0.000126713)
(0.0562886 0.205767 -0.00012203)
(0.0618453 0.225526 -0.000105642)
(0.058014 0.211652 -0.000110949)
(0.0147981 0.0757605 7.08651e-06)
(0.0695723 0.341377 -4.53487e-05)
(-0.0682708 -0.495922 0.000188286)
(0.0261068 0.125191 6.52833e-05)
(-0.00650472 -0.0370392 6.48044e-05)
(0.0332543 0.160846 4.20118e-05)
(0.0314068 0.113621 -7.35383e-05)
(0.030057 0.108652 -6.99347e-05)
(0.0333566 0.120242 -5.85696e-05)
(0.030785 0.111025 -6.18446e-05)
(1.32613 0.877925 -0.000274185)
(1.2939 0.856603 -0.000188919)
(0.130862 0.12327 -4.60431e-05)
(0.357866 -0.148593 3.66223e-05)
(0.36875 -0.153112 3.94373e-05)
(0.118536 0.111647 -4.55058e-05)
(0.477515 -0.198031 -1.04083e-06)
(0.22405 0.211014 -4.44541e-05)
(0.20963 0.1975 -4.85332e-05)
(0.457364 -0.189781 1.40371e-05)
(0.000168812 -0.0064773 2.9233e-06)
(9.25118e-05 -0.0121175 4.17187e-06)
(-0.051254 -0.504662 0.000153337)
(-3.35224e-05 -0.0214002 8.12727e-06)
(-4.47549e-05 -0.0223196 7.24994e-06)
(-0.066166 -0.535115 0.000167669)
(-0.053385 -0.524961 0.000179594)
(-4.11058e-05 -0.0218125 1.04905e-05)
(-5.88588e-05 -0.0231712 1.01827e-05)
(-0.0702765 -0.567616 0.000199955)
(-0.0707287 -0.571205 0.000201069)
(-7.00374e-06 -0.0191118 1.11406e-05)
(-0.0570403 -0.560164 0.000181904)
(-0.000175545 -0.0315886 1.42714e-05)
(-0.0783998 -0.632147 0.000211861)
(1.38043 0.914035 -0.000366298)
(1.37843 0.912697 -0.000351042)
(1.37599 0.911065 -0.000335682)
(1.3805 0.914065 -0.000349305)
(0.212759 0.92268 -0.000322093)
(0.523093 2.56341 -0.0008667)
(0.543444 2.66329 -0.000906558)
(0.189859 0.823249 -0.000318899)
(0.179774 0.778127 -0.000317175)
(0.236974 1.06929 -0.000401114)
(0.268084 1.26456 -0.000441237)
(0.442967 2.1687 -0.000725646)
(0.181239 0.784615 -0.00031852)
(0.244288 1.10272 -0.000408531)
(0.257405 1.2138 -0.000428961)
(0.435414 2.13151 -0.000723074)
(1.39336 0.923096 -0.000392318)
(1.39374 0.923394 -0.000343649)
(1.39378 0.92348 -0.000266642)
(1.39403 0.923598 -0.000335362)
(0.45896 2.72069 -0.000436114)
(0.475574 2.81901 -0.000600911)
(0.00125663 0.00446083 -1.0281e-07)
(-0.0636209 -0.515101 9.85806e-05)
(0.00103504 0.00310889 5.70466e-07)
(0.0238674 0.135255 -3.39146e-05)
(0.0242398 0.13743 -3.03554e-05)
(0.024551 0.13924 -2.35266e-05)
(0.024366 0.138167 -2.88134e-05)
(0.247939 1.07662 -0.000157856)
(0.205006 0.890062 -0.000181565)
(0.658095 3.22899 -0.000622257)
(-0.0547848 -0.364016 0.000132926)
(-0.0432786 -0.269802 0.000108898)
(-0.064268 -0.466967 0.000164731)
(-0.0453265 -0.28241 0.000114838)
(-0.0595088 -0.395088 0.000148127)
(0.435331 3.72409 -0.000754946)
(0.475466 4.06791 -0.000677556)
(0.0844527 0.31392 -3.99685e-05)
(0.109417 0.448906 0.000520503)
(0.109569 0.44953 -0.000646704)
(0.0844079 0.313745 -5.12262e-05)
(0.142944 0.659058 -0.000118049)
(0.178391 0.784289 -9.59138e-05)
(0.179456 0.789047 -0.000116194)
(0.14598 0.673544 -0.000100922)
(0.109591 0.449615 0.000499017)
(0.0843611 0.313558 -6.47109e-05)
(0.109605 0.449653 -0.000667081)
(0.0844007 0.313716 -5.51444e-05)
(0.0699366 1.05635 -0.000146824)
(-0.00244492 1.10671 -0.000110228)
(-0.00285304 1.39038 -0.000194847)
(0.0766215 1.15512 -0.000185249)
(-0.0672635 1.64634 -0.000280521)
(1.39223 0.922471 -0.000215238)
(-0.0698257 1.70942 -0.000362182)
(-0.0533272 1.30483 -0.000152699)
(-0.0645936 1.58091 -0.000242655)
(1.39102 0.921673 -0.000195138)
(-0.00297343 1.45417 -0.000233986)
(0.0694407 1.04569 -0.000227965)
(-0.0030627 1.50356 -0.000320112)
(0.0752617 1.13375 -0.000177563)
(0.289652 1.3106 -5.62343e-05)
(0.228652 0.992922 -7.13416e-05)
(0.644539 3.16299 -0.000212635)
(0.381212 1.80307 -0.000184771)
(0.31959 1.51123 -3.45309e-05)
(0.618737 3.03598 -0.000247703)
(0.234416 1.01806 -8.4759e-05)
(0.344402 1.55863 -0.000147075)
(0.0829409 0.325658 -3.96342e-05)
(0.074807 0.293874 -1.88862e-05)
(0.0606926 0.222399 1.69484e-05)
(0.0757586 0.277725 3.71426e-05)
(0.0726058 0.285256 -1.60599e-05)
(0.66487 4.15877 -0.000711439)
(0.416187 2.46693 -0.000245619)
(0.692784 4.3346 -0.000488658)
(0.429358 2.87085 -0.000436585)
(0.44453 2.97162 -0.000362987)
(0.444974 2.63784 -0.000254684)
(-0.0296814 -0.218725 2.47195e-05)
(-0.0177094 -0.120355 1.79407e-05)
(0.00145726 0.0055854 -1.50784e-07)
(-0.0169687 -0.116094 1.46447e-05)
(0.00148313 0.00556398 4.23519e-08)
(0.0653963 0.343495 -3.53374e-05)
(0.164329 0.812619 -8.59083e-05)
(0.166738 0.825069 -0.000113582)
(0.0505989 0.27278 -4.3285e-05)
(0.024705 0.140037 -1.92257e-05)
(0.0505722 0.272133 -3.03383e-05)
(0.0247112 0.139908 -1.65654e-05)
(0.0305262 0.110615 5.98632e-06)
(0.0387864 0.140614 2.20917e-05)
(0.0658321 0.240019 -0.000100568)
(0.0683095 0.249033 -9.69539e-05)
(0.0319603 0.111688 -5.18652e-05)
(0.0360769 0.130028 -5.55696e-05)
(0.0379066 0.13247 -4.60584e-05)
(0.0377774 0.136151 -5.34891e-05)
(0.275952 0.810036 -9.85868e-05)
(0.276126 0.81051 -7.81803e-05)
(0.286031 0.664475 -6.63802e-05)
(0.286107 0.664653 -6.77351e-05)
(-0.192406 1.78389 -0.000130011)
(-0.0582038 1.42418 -0.000142687)
(1.39066 0.92197 -0.000227318)
(-0.81746 2.65917 -0.000255421)
(-0.0553253 1.35372 -0.00014975)
(-0.179896 1.66726 -0.000187461)
(0.0562828 0.206236 -6.40972e-06)
(0.0553262 0.202795 -1.27548e-05)
(0.0293609 0.106428 -5.0668e-06)
(0.0256769 0.0902697 -3.41535e-06)
(0.0259631 0.0912479 -1.33e-05)
(0.0292749 0.106128 -8.81782e-06)
(0.414083 2.44994 -0.000829002)
(0.38897 2.30112 -0.000784935)
(0.000835757 0.00179266 1.24259e-05)
(-0.00201588 -0.0147095 1.94327e-05)
(-0.0270078 -0.16962 6.7902e-05)
(-0.0237896 -0.149802 6.00407e-05)
(-0.00692226 -0.0430983 3.11756e-05)
(-0.00329939 -0.0221354 2.22351e-05)
(1.36219 0.901889 -0.000308338)
(1.37129 0.907926 -0.000319597)
(1.37725 0.911893 -0.000334825)
(1.37184 0.9083 -0.000321097)
(-0.0210038 -0.12456 6.48014e-05)
(-0.0152515 -0.0912833 5.05991e-05)
(0.351489 2.07838 -0.000663841)
(0.37786 2.23516 -0.000756507)
(-0.0926124 -0.745307 0.000242493)
(-0.0284536 -0.178523 7.11677e-05)
(-0.0325664 -0.203844 8.1237e-05)
(-0.00857695 -0.0526723 3.48178e-05)
(-0.0132132 -0.0794933 4.58852e-05)
(0.197258 0.855082 -0.000319655)
(0.515823 2.52771 -0.000868742)
(0.190399 0.825509 -0.000316607)
(0.480951 2.35612 -0.000820582)
(0.283495 2.41215 -0.000715452)
(0.29182 2.48339 -0.000748394)
(0.0660516 0.269995 0.000294531)
(0.0534118 0.197952 -4.20038e-05)
(0.0562188 0.208396 -4.71734e-05)
(0.0621322 0.25388 -0.000367245)
(0.0983741 0.430359 -7.27769e-05)
(0.0657858 0.301506 -3.83524e-05)
(0.0939691 0.410945 -6.20782e-05)
(0.0698467 0.320296 -4.79877e-05)
(0.0594962 0.220591 -5.31594e-05)
(0.0571545 0.211877 -4.89337e-05)
(0.0708271 0.289634 0.000309817)
(-0.00226172 1.37241 -0.000377435)
(0.0575505 0.860879 -0.000241027)
(0.0588471 0.880375 -0.000246703)
(-0.00221109 1.34577 -0.000368322)
(-0.0639913 1.58122 -0.000433094)
(1.36041 0.90069 -0.000301046)
(-0.0647086 1.59878 -0.000442868)
(-0.00227969 1.38156 -0.000380928)
(0.060301 0.902264 -0.0002555)
(-0.00230846 1.39481 -0.000388897)
(0.0592731 0.886786 -0.000249018)
(-0.0635646 1.57075 -0.000428891)
(1.35766 0.898869 -0.000298924)
(-0.0623855 1.54177 -0.000418403)
(0.317623 2.7037 -0.000790621)
(0.31175 2.6535 -0.000777354)
(0.0430597 0.159437 -2.34582e-05)
(0.0473548 0.175417 -3.10965e-05)
(0.0556249 0.227125 -0.000319274)
(0.0522046 0.193461 -4.00118e-05)
(0.0603192 0.246426 0.000275669)
(0.0488141 0.180846 -3.3741e-05)
(0.0825375 0.360545 -3.69562e-05)
(0.0603915 0.276543 -2.69124e-05)
(0.0877501 0.38353 -4.92022e-05)
(0.0556689 0.254683 -1.54424e-05)
(-0.0574924 1.42142 -0.00037994)
(-0.0597505 1.47703 -0.000395111)
(1.3371 0.885221 -0.00028328)
(0.0521229 0.779333 -0.000218481)
(-0.00199061 1.22742 -0.000332028)
(-0.00209029 1.28258 -0.000346696)
(0.0544596 0.81441 -0.000227211)
(-0.0021205 1.29872 -0.000351757)
(0.0569954 0.852512 -0.000238472)
(0.055256 0.826373 -0.000230533)
(-0.0021876 1.33436 -0.00036447)
(-0.0604145 1.49336 -0.000400426)
(1.34251 0.88881 -0.000286169)
(-0.0619122 1.53017 -0.000414464)
(0.0753391 0.295096 -0.000146686)
(0.0755828 0.295911 -0.000146341)
(0.055652 0.20325 -0.000117538)
(0.0559089 0.204331 -0.000120729)
(0.0755338 0.296043 -0.000147059)
(0.241291 1.1372 -0.000410272)
(0.405508 1.98414 -0.000705409)
(0.22668 1.02211 -0.000385906)
(0.175646 0.759665 -0.000316752)
(0.176687 0.764341 -0.000315813)
(0.233974 1.05559 -0.000397297)
(0.413807 2.02512 -0.000688912)
(0.253128 1.1935 -0.000425281)
(0.0769898 0.301175 -0.000142025)
(0.0765891 0.299657 -0.000143421)
(0.0755977 0.29592 -0.000145662)
(0.055713 0.203426 -0.000116201)
(0.0572157 0.20878 -0.00011251)
(0.263851 1.75733 -0.00054017)
(0.421068 2.62605 -0.000821417)
(0.27714 1.63733 -0.000514014)
(0.283741 1.67647 -0.000524656)
(0.451684 2.81747 -0.000855701)
(0.441902 2.75639 -0.000843373)
(0.27052 1.80188 -0.000541573)
(-0.000851189 -0.00736845 3.26997e-05)
(-0.0255503 -0.150862 7.58268e-05)
(0.0532253 0.260158 -8.20454e-06)
(0.00671968 0.033041 2.64004e-05)
(-0.0280113 -0.165096 8.23565e-05)
(-0.00852644 -0.0490886 5.17612e-05)
(-0.0651893 -0.432594 0.000175653)
(-0.0529602 -0.329465 0.000142692)
(-0.0654463 -0.475448 0.000170953)
(-0.0511522 -0.318292 0.000133822)
(-0.0611175 -0.405678 0.000155136)
(0.463 2.88826 -0.000872845)
(0.472464 2.94746 -0.000886121)
(0.294228 1.96034 -0.000579042)
(0.28818 1.91992 -0.00056829)
(-0.0204375 -0.113996 8.91705e-05)
(-0.0376112 -0.220682 0.000112461)
(0.0465491 0.226982 7.84431e-06)
(0.00339587 0.0154611 3.45588e-05)
(0.0403052 0.195938 2.21363e-05)
(-0.0351822 -0.206589 0.000103417)
(-0.0115694 -0.0656329 5.97591e-05)
(0.0293314 0.105912 -6.63276e-05)
(0.0297186 0.107399 -6.88938e-05)
(0.0293453 0.105933 -6.53842e-05)
(0.0302532 0.10913 -6.28253e-05)
(0.119594 0.35012 -3.31263e-05)
(0.145512 0.42621 -7.48643e-05)
(0.194159 0.45034 -0.000112098)
(0.18885 0.438015 -0.000106623)
(0.161347 0.374173 -7.93294e-05)
(0.169545 0.393212 -9.13361e-05)
(0.152515 0.446775 -8.57301e-05)
(-0.60686 1.97681 -0.000491901)
(1.32102 0.874539 -0.000268437)
(-0.0561008 1.38728 -0.000368244)
(-0.168594 1.56892 -0.000412736)
(-0.579373 1.88745 -0.000530155)
(-0.509247 1.65839 -0.000315952)
(-0.527478 1.71812 -0.000431986)
(-0.145904 1.35849 -0.000352007)
(-0.0502968 1.24455 -0.000324411)
(1.30426 0.863403 -0.000238387)
(-0.562136 1.83143 -0.000460421)
(0.0876228 0.319521 -7.2359e-05)
(0.0806533 0.294085 -8.34174e-05)
(0.14453 0.136157 -4.64959e-05)
(0.398145 -0.16532 4.61289e-05)
(0.382539 -0.158837 4.28635e-05)
(0.158717 0.149534 -4.51002e-05)
(0.0542793 0.189818 -3.16228e-05)
(0.050583 0.182369 -3.8799e-05)
(0.0460059 0.165842 -4.568e-05)
(0.0406779 0.142163 -4.28247e-05)
(0.190569 0.179559 -4.68774e-05)
(0.416341 -0.172866 3.91219e-05)
(0.434968 -0.180563 3.31772e-05)
(0.174897 0.16479 -4.388e-05)
(0.639777 3.1389 -0.000835481)
(0.24568 1.0665 -0.000249654)
(0.233614 1.01404 -0.000297649)
(0.598789 2.93716 -0.000853381)
(0.234615 1.01805 -0.000325099)
(0.632583 3.10223 -0.000963135)
(0.204407 0.886996 -0.000297926)
(0.648249 3.17909 -0.00107799)
(0.232007 1.0063 -0.000378608)
(0.607547 2.97841 -0.00105391)
(0.250879 1.08821 -0.000368638)
(0.587536 2.87999 -0.000993106)
(-0.0640774 -0.518671 0.000118949)
(-0.032159 -0.235965 5.93313e-05)
(-0.0465451 -0.339288 0.000113392)