/*--------------------------------*- C++ -*----------------------------------*\
| =========                 |                                                 |
| \\      /  F ield         | OpenFOAM: The Open Source CFD Toolbox           |
|  \\    /   O peration     | Version:  2306                                  |
|   \\  /    A nd           | Website:  www.openfoam.com                      |
|    \\/     M anipulation  |                                                 |
\*---------------------------------------------------------------------------*/
FoamFile
{
    version     2.0;
    format      ascii;
    arch        "LSB;label=32;scalar=64";
    class       volScalarField;
    location    "1.7";
    object      p;
}
// * * * * * * * * * * * * * * * * * * * * * * * * * * * * * * * * * * * * * //

dimensions      [0 2 -2 0 0 0 0];

internalField   nonuniform List<scalar> 
111542
(
60.3368
61.6322
64.7327
69.8209
76.9885
86.462
98.4206
112.92
129.498
146.764
162.183
171.739
171.313
159.54
139.289
116.186
94.2738
75.2159
59.3131
46.4984
36.3926
28.6392
22.8155
18.3986
15.0542
12.5016
10.4496
8.85517
7.66213
6.73977
6.00306
5.39455
4.92586
4.52648
4.14514
3.74061
3.26043
2.70076
1.96236
0.957136
59.2522
60.5072
63.5764
68.606
75.7683
85.3937
97.8726
113.481
132.084
152.647
172.514
186.119
185.784
170.002
144.339
117.349
93.3278
73.177
56.8394
44.0025
34.1736
26.759
21.2016
17.1112
14.0524
11.6891
9.83793
8.40749
7.30597
6.43811
5.73818
5.16519
4.69419
4.28525
3.89912
3.49881
3.04195
2.48474
1.75847
0.808489
57.1044
58.2926
61.222
66.0736
73.1284
82.9079
96.1414
113.662
136.165
163.534
192.496
214.508
215.197
190.253
154.093
120.418
92.3901
70.0296
52.7934
39.8608
30.3915
23.6728
18.8032
15.2317
12.3529
10.0221
8.25419
6.95619
5.98976
5.25282
4.6836
4.23984
3.88642
3.59052
3.31758
3.03195
2.69032
2.23754
1.60076
0.701297
53.9504
55.0128
57.6522
62.0949
68.7311
78.2965
91.9552
111.431
139.169
178.479
213.917
257.324
263.867
223.615
171.277
129.96
96.0054
70.1382
51.2729
37.701
24.0542
17.8669
15.1524
13.5373
11.4878
9.41932
7.76847
6.5208
5.54452
4.76216
4.13702
3.63892
3.23879
2.90712
2.61598
2.33474
2.01989
1.61042
1.01219
0.0997601
49.9067
50.7633
52.9107
56.5896
62.2402
70.7105
83.4536
102.91
133.138
178.136
255.591
342.934
368.384
261.492
176.148
125.587
84.8003
57.398
39.5562
28.3121
21.2315
7.26037
6.11824
6.39167
5.64784
4.76892
4.1293
3.64929
3.2493
2.91581
2.64752
2.43394
2.26308
2.11995
1.99224
1.86368
1.7033
1.45672
1.0023
0.0293572
45.1754
45.7383
47.1696
49.6661
53.6013
59.7064
69.3088
84.8607
111.129
165.894
259.907
456.043
624.365
254.108
179.211
116.798
67.6703
40.6265
25.0579
16.0078
13.3527
12.4092
11.8913
7.5592
4.59912
3.2108
2.47124
1.93337
1.51678
1.2161
1.00889
0.866235
0.767576
0.69954
0.652339
0.6165
0.579639
0.53131
0.480796
0.563243
40.0558
40.2559
40.7854
41.7399
43.2956
45.7828
49.7741
56.234
66.8161
105.958
181.316
411.087
1956.95
-409.974
210.661
78.768
30.8871
15.2412
7.05008
-2.33036
-7.50475
14.8781
14.3102
8.83986
5.52977
4.20673
3.58186
3.12172
2.75687
2.48994
2.29706
2.14838
2.02656
1.92153
1.82835
1.74325
1.65506
1.55894
1.45687
1.40799
34.9284
34.7374
34.2856
33.5425
32.4332
30.7745
28.1474
23.5783
14.6219
16.4204
-1.45693
-165.314
-1007.39
-1042.14
-309.935
-100.698
-46.6534
-26.6729
-17.5539
-11.2519
-4.46135
-8.92669
-6.83003
-4.9798
-3.91723
-2.87973
-1.89654
-1.11027
-0.510226
-0.0377261
0.343362
0.650385
0.896143
1.09052
1.24022
1.34615
1.39436
1.3544
1.16026
0.68655
30.2031
29.6514
28.2775
25.9485
22.3899
17.0345
8.84668
-4.08969
-25.4326
-49.0581
-123.224
-268.506
-478.441
-505.414
-319.644
-175.309
-101.186
-62.0792
-40.0845
-26.1102
-16.1472
-9.35643
-5.09397
-2.01354
-0.153324
1.00254
1.81867
2.39664
2.78174
3.02773
3.17892
3.26254
3.29414
3.28202
3.22748
3.12465
2.95024
2.65566
2.14495
1.22498
26.2845
25.4269
23.3037
19.7086
14.2565
6.2143
-5.63425
-23.2745
-50.0018
-91.4254
-149.479
-222.531
-288.093
-296.28
-238.937
-166.216
-111.141
-75.6294
-52.483
-36.3975
-24.9757
-17.3522
-12.1517
-8.41116
-5.75385
-3.85437
-2.42468
-1.31571
-0.457431
0.204475
0.717686
1.11716
1.42463
1.65198
1.80071
1.86574
1.82467
1.63468
1.23391
0.571828
23.4857
22.4188
19.7795
15.3362
8.66414
-0.967084
-14.6696
-33.9462
-60.6757
-96.7389
-142.13
-191.649
-230.53
-237.984
-207.946
-159.493
-115.279
-82.8207
-59.8849
-43.1042
-30.5976
-21.4074
-14.6324
-9.63312
-5.96811
-3.29739
-1.33952
0.104392
1.16351
1.93039
2.47733
2.8584
3.11019
3.25373
3.28977
3.22993
3.05096
2.70544
2.11833
1.15339
22.0275
20.864
17.9522
13.1101
5.84002
-4.49303
-18.914
-38.5781
-64.6601
-97.5425
-135.762
-173.942
-202.111
-208.669
-189.402
-153.776
-116.471
-85.9882
-63.1878
-46.094
-33.1426
-23.4337
-16.2768
-11.0419
-7.26421
-4.52784
-2.53053
-1.06022
0.0272825
0.831301
1.42401
1.85751
2.16818
2.38159
2.44515
2.43517
2.31017
2.01892
1.5087
0.720833
59.8002
61.0364
64.0552
68.9687
75.883
85.0151
96.5752
110.576
126.561
143.24
158.16
167.419
166.971
155.581
135.97
113.527
92.2133
73.6047
58.052
45.4937
35.629
28.0419
22.2944
17.9671
14.6813
12.1307
10.1194
8.55995
7.3727
6.46093
5.7483
5.18298
4.73235
4.35111
3.99648
3.62855
3.20368
2.6747
1.96266
0.967753
58.7262
59.9357
62.9031
67.7599
74.6731
83.9637
96.0149
111.09
129.065
148.964
168.232
181.515
181.057
165.716
140.823
114.625
91.2397
71.5553
55.5773
43.0271
33.4214
26.1437
20.6671
16.6459
13.6368
11.2997
9.47326
8.06579
6.98397
6.13969
5.46953
4.93087
4.49087
4.11334
3.763
3.40338
2.99334
2.48029
1.79393
0.85628
56.6046
57.749
60.5748
65.2568
72.0649
81.5045
94.2858
111.223
133.006
159.545
187.657
209.046
209.817
185.503
150.36
117.66
90.3233
68.4317
51.5554
38.9156
29.6696
23.0515
18.2212
14.6655
11.8025
9.50184
7.77976
6.53765
5.62991
4.95033
4.43559
4.04181
3.73315
3.47718
3.24312
2.99789
2.7017
2.29785
1.70475
0.808775
53.4911
54.5112
57.0525
61.3342
67.7326
76.9626
90.1606
109.018
135.944
174.225
210.134
252.831
259.169
219.256
168.054
127.688
94.314
68.7991
50.2057
36.847
23.0027
16.864
14.3893
12.8613
10.7929
8.72458
7.1203
5.94539
5.05
4.34881
3.8013
3.37378
3.03666
2.76117
2.52253
2.29428
2.03964
1.69914
1.17183
0.289404
49.5029
50.3203
52.3815
55.9183
61.3568
69.5224
81.8375
100.705
130.14
175.171
251.659
338.044
362.697
256.043
172.666
123.604
83.3475
56.1691
38.5097
27.3484
19.9456
4.81203
4.18614
4.97699
4.49456
3.81017
3.35981
3.04706
2.7798
2.54592
2.34933
2.18422
2.04523
1.92413
1.81509
1.71087
1.59212
1.41162
1.05083
0.188333
44.84
45.3704
46.7338
49.1199
52.891
58.7608
68.0338
83.1359
108.817
163.494
257.264
452.325
619.196
247.918
175.075
115.734
66.5194
39.3581
23.9299
15.0656
11.4836
12.0915
10.9848
6.5378
3.63054
2.36866
1.78649
1.40063
1.11225
0.911577
0.778482
0.688533
0.628244
0.590062
0.571724
0.572282
0.591594
0.631177
0.703815
0.889525
39.7903
39.9729
40.4596
41.3465
42.8069
45.1658
48.9947
55.2727
65.7074
104.783
180.118
409.427
1948.27
208.199
85.1319
32.0271
14.5
6.26996
-3.48001
-10.0543
14.4762
14.2942
8.71886
5.37258
4.03994
3.36958
2.83659
2.3912
2.04621
1.78309
1.5758
1.41064
1.27964
1.18062
1.11317
1.07553
1.06747
1.08777
1.13533
34.7355
34.5459
34.078
33.3143
32.1859
30.5186
27.9158
23.4578
14.8076
16.7151
-0.634952
-162.404
-991.852
-1024.83
-304.517
-98.7069
-45.5578
-26.2478
-17.5737
-11.4823
-3.88793
-8.3782
-6.55535
-4.99291
-4.00034
-2.96493
-1.99849
-1.23962
-0.664664
-0.21237
0.152747
0.448389
0.688382
0.883401
1.04306
1.17238
1.26447
1.29206
1.18247
0.755954
30.0911
29.5434
28.1752
25.8712
22.3636
17.1036
9.09194
-3.5243
-24.2941
-47.7868
-120.374
-263.364
-470.373
-494.923
-313.82
-172.032
-99.2725
-61.0502
-39.619
-25.9648
-15.9877
-9.35008
-5.31971
-2.3497
-0.473799
0.710373
1.52779
2.08734
2.4452
2.66066
2.78163
2.83858
2.84968
2.82579
2.77116
2.68347
2.54371
2.30667
1.87897
1.07304
26.2296
25.3807
23.2957
19.7616
14.4115
6.54129
-5.02963
-22.2246
-48.241
-88.5475
-145.062
-216.336
-280.629
-288.559
-232.673
-161.974
-108.546
-74.139
-51.6934
-36.0721
-24.9481
-17.486
-12.3859
-8.67681
-6.01967
-4.115
-2.68269
-1.57552
-0.723522
-0.0710843
0.431667
0.821525
1.12202
1.34669
1.50013
1.57923
1.5649
1.41752
1.07917
0.503657
23.4752
22.4305
19.8367
15.4752
8.94512
-0.468177
-13.8386
-32.6218
-58.6341
-93.7122
-137.871
-186.083
-224.096
-231.62
-202.5
-155.549
-112.694
-81.2265
-58.9547
-42.631
-30.444
-21.4647
-14.8111
-9.88965
-6.27358
-3.63103
-1.68818
-0.253615
0.797056
1.55496
2.09292
2.46581
2.71112
2.85187
2.897
2.84986
2.69292
2.38566
1.86246
1.01373
22.0417
20.8879
18.0477
13.281
6.1869
-3.9127
-17.9802
-37.1462
-62.5073
-94.5167
-131.728
-168.943
-196.503
-203.163
-184.665
-150.082
-113.878
-84.3162
-62.1635
-45.5267
-32.8955
-23.4104
-16.4027
-11.2786
-7.55086
-4.83823
-2.8531
-1.38852
-0.304099
0.497286
1.08706
1.51713
1.82279
2.02375
2.11988
2.12276
2.01322
1.75336
1.30087
0.628955
58.7598
59.9076
62.7265
67.3066
73.7451
82.2425
92.9953
106.002
120.838
136.323
150.166
158.736
158.297
147.616
129.202
108.072
87.914
70.2146
55.3728
43.3762
33.9556
26.6847
21.1489
16.9926
13.8533
11.4216
9.51326
8.02809
6.88434
6.00074
5.30892
4.75857
4.31126
3.9326
3.58838
3.24236
2.85386
2.3717
1.72695
0.828192
57.71
58.833
61.5974
66.1211
72.556
81.198
92.4024
106.411
123.114
141.619
159.587
171.859
171.495
157.091
133.707
109.06
86.9271
68.1819
52.9359
40.9749
31.8315
24.841
19.5713
15.7495
12.9183
10.7087
8.96077
7.59317
6.5248
5.68053
5.00494
4.45882
4.0096
3.62725
3.28261
2.94369
2.57237
2.11777
1.51379
0.689546
55.639
56.6983
59.3235
63.6767
70.0052
78.7774
90.6566
106.409
126.697
151.472
177.786
198.03
198.621
175.647
142.663
111.94
86.0073
65.0935
48.9717
36.9664
28.3154
21.943
17.254
13.8947
11.2396
9.08924
7.4475
6.23515
5.32652
4.6287
4.08694
3.66324
3.32638
3.05024
2.80989
2.57917
2.32371
1.99143
1.49886
0.71598
52.6042
53.5422
55.894
59.8627
65.7959
74.3601
86.6242
104.193
129.374
165.371
200.79
241.71
247.636
209.077
160.464
122.326
90.3074
65.6742
47.7538
34.9507
21.5779
16.0254
13.7855
12.3292
10.2299
8.08439
6.38639
5.11469
4.12989
3.35429
2.74876
2.28031
1.91953
1.63969
1.42013
1.24093
1.07463
0.871715
0.539736
-0.0781429
48.7252
49.4666
51.3607
54.6206
59.6412
67.1964
78.6327
96.2455
123.927
167.859
241.609
325.458
348.78
244.143
165.454
119.298
80.0637
53.3721
36.1113
25.2653
18.1585
4.11657
4.43872
5.5144
4.84699
3.8583
3.13083
2.5813
2.11282
1.71276
1.38264
1.11586
0.907744
0.750446
0.642994
0.584999
0.572946
0.579262
0.504393
0.000330611
44.1782
44.6644
45.8975
48.0664
51.5119
56.9063
65.4949
79.6169
103.939
157.428
249.589
441.836
604.054
233.792
169.926
113.35
64.8426
37.5585
21.9457
12.7491
7.28906
6.9052
7.01363
3.03843
0.0885985
-1.32171
-2.00169
-2.42827
-2.71633
-2.88613
-2.96486
-2.98568
-2.95532
-2.88402
-2.76939
-2.60109
-2.35559
-1.99121
-1.4164
-0.355974
39.2863
39.433
39.8374
40.5922
41.8615
43.957
47.435
53.287
63.3048
101.827
176.98
407.718
1926.69
196.987
81.179
30.7738
13.2297
4.56295
-4.64013
-8.01328
12.0672
10.6638
4.58089
1.18967
-0.0101606
-0.477368
-0.777945
-0.990371
-1.12004
-1.19173
-1.23037
-1.24753
-1.2371
-1.19152
-1.09474
-0.92096
-0.635496
-0.181112
0.51105
34.3845
34.1775
33.6821
32.8812
31.713
30.0199
27.4498
23.1858
15.1191
17.4712
2.03335
-152.372
-966.147
-1004
-293.325
-93.27
-43.5059
-25.8874
-17.989
-12.2331
-4.95747
-9.7316
-8.66161
-7.48157
-6.40653
-5.16356
-4.00432
-3.07943
-2.36274
-1.79331
-1.33117
-0.9525
-0.63978
-0.374702
-0.135455
0.0938549
0.32552
0.551267
0.713988
0.604909
29.8792
29.3334
27.9938
25.7405
22.3298
17.2533
9.58583
-2.39093
-21.9834
-44.4996
-113.354
-250.408
-450.637
-475.065
-299.813
-163.796
-94.8561
-58.853
-38.7024
-25.808
-16.3139
-10.4375
-6.72035
-3.93863
-2.13874
-0.962525
-0.109355
0.514042
0.950327
1.24886
1.45346
1.59233
1.6837
1.73999
1.77319
1.78804
1.77717
1.70802
1.49533
0.94153
26.1374
25.3153
23.2907
19.8763
14.7299
7.1937
-3.83009
-20.1336
-44.7036
-82.684
-135.978
-203.52
-264.942
-273.007
-220.341
-153.728
-103.565
-71.2812
-50.1556
-35.4195
-24.9478
-18.0356
-13.0532
-9.41101
-6.85429
-5.01953
-3.60251
-2.474
-1.58345
-0.885559
-0.334241
0.104876
0.455709
0.730846
0.941522
1.08876
1.16059
1.12495
0.925805
0.496461
23.467
22.4569
19.9588
15.7635
9.50487
0.51483
-12.2048
-30.0094
-54.5918
-87.6841
-129.357
-174.993
-211.301
-218.902
-191.781
-147.722
-107.498
-77.9335
-56.9374
-41.5037
-29.9651
-21.4429
-15.0307
-10.277
-6.81225
-4.28519
-2.41053
-1.00652
0.0379486
0.805555
1.36441
1.76616
2.04698
2.22918
2.32622
2.34018
2.25865
2.04893
1.65123
0.954675
22.078
20.9708
18.2356
13.6548
6.86644
-2.77006
-16.1441
-34.3108
-58.2866
-88.5179
-123.677
-158.942
-185.268
-192.003
-174.977
-142.654
-108.685
-80.8843
-59.9727
-44.2142
-32.221
-23.1892
-16.4745
-11.5341
-7.93001
-5.3087
-3.38524
-1.95385
-0.880756
-0.0755338
0.528436
0.980254
1.31358
1.54786
1.69218
1.74624
1.69799
1.51924
1.1721
0.622939
57.2874
58.3159
60.8488
64.9629
70.7355
78.3353
87.9269
99.495
112.651
126.347
138.547
146.025
145.535
135.857
119.206
100.035
81.6033
65.2814
51.523
40.3792
31.6114
24.7867
19.5003
15.4672
12.4148
10.0727
8.25378
6.84676
5.76785
4.94103
4.30234
3.8023
3.40335
3.07469
2.78599
2.50588
2.1987
1.81847
1.30564
0.588283
56.2729
57.2761
59.7545
63.8102
69.5694
77.286
87.2654
99.7103
114.513
130.885
146.803
157.449
157.12
144.134
123.061
100.765
80.5349
63.2426
49.1338
38.0741
29.6106
22.9708
17.8234
14.065
11.3226
9.21751
7.56578
6.28051
5.28569
4.51063
3.90231
3.42124
3.03501
2.71625
2.44048
2.1813
1.9063
1.57128
1.11735
0.481673
54.2728
55.214
57.5574
61.4454
67.0895
74.8976
85.4505
99.422
117.399
139.355
162.702
180.814
181.093
160.353
130.821
103.155
79.4293
60.1063
45.214
34.2144
26.4313
20.1085
15.0598
11.61
9.15837
7.27011
5.8332
4.77038
3.98079
3.38316
2.9269
2.57874
2.3133
2.10764
1.94469
1.80567
1.66607
1.48242
1.17475
0.590994
51.3468
52.1746
54.2591
57.7808
63.0425
70.6293
81.4883
97.0513
119.402
151.494
185.245
222.797
227.978
192.14
148.052
113.451
83.6795
60.641
43.9456
32.1292
19.3986
13.6119
10.6427
8.97964
7.20769
5.50562
4.16912
3.17087
2.40227
1.79865
1.32671
0.966795
0.697183
0.497726
0.362255
0.284329
0.255819
0.247622
0.181128
-0.145102
47.6131
48.2623
49.92
52.7805
57.1908
63.8343
73.9144
89.4988
114.164
155.457
223.584
302.178
323.533
223.961
153.452
111.38
73.8526
48.4025
32.1587
22.0467
15.0756
-3.39785
-1.65134
0.922551
1.18198
0.762028
0.3942
0.0794117
-0.225443
-0.504274
-0.742374
-0.926316
-1.05962
-1.14156
-1.1594
-1.09745
-0.93215
-0.651382
-0.311956
-0.273902
43.2613
43.6656
44.7131
46.569
49.5328
54.2029
61.697
74.1497
95.9253
146.416
234.546
420.415
574.66
210.144
162.324
108.738
59.7239
32.7723
17.8961
9.35011
3.50901
-4.43645
-0.686821
-1.00885
-2.24166
-2.9254
-3.27396
-3.56469
-3.83426
-4.05341
-4.21242
-4.32936
-4.39015
-4.39593
-4.32885
-4.15483
-3.81285
-3.19261
-2.09962
-0.229475
38.5748
38.6724
38.9594
39.5202
40.4999
42.1756
45.054
50.0783
59.0321
95.7716
169.371
400.739
1888.34
219.23
87.5008
29.9615
10.3328
1.37749
-8.48767
-15.9775
13.9391
11.61
4.57797
0.491432
-1.37534
-2.41572
-3.162
-3.71591
-4.10577
-4.37034
-4.5372
-4.63379
-4.66609
-4.61046
-4.43854
-4.09165
-3.46935
-2.40423
-0.668293
33.8929
33.6634
33.1265
32.2668
31.0277
29.2666
26.6818
22.5794
15.1627
17.8789
5.2069
-136.237
-914.557
-958.062
-270.346
-84.2075
-41.3007
-26.5123
-19.7171
-14.3915
-5.9331
-7.86803
-7.05592
-6.4653
-5.82798
-4.96935
-4.12457
-3.44432
-2.92564
-2.52336
-2.20404
-1.93568
-1.72287
-1.53705
-1.34221
-1.10891
-0.800602
-0.383603
0.127289
0.478772
29.5877
29.0493
27.7436
25.5573
22.2742
17.4416
10.2386
-0.852434
-18.7554
-39.5181
-102.382
-228.946
-416.549
-439.894
-275.376
-150.642
-88.4812
-56.0412
-37.7777
-26.0133
-17.2763
-11.9888
-7.42334
-4.18419
-2.4743
-1.55276
-0.93201
-0.499388
-0.222478
-0.0537422
0.0513214
0.120614
0.167233
0.207697
0.258693
0.331838
0.432883
0.552007
0.627756
0.490773
26.0145
25.2261
23.2906
20.0433
15.1788
8.10905
-2.14384
-17.1711
-39.6233
-74.082
-122.379
-183.88
-240.244
-248.311
-201.147
-141.298
-96.281
-67.157
-47.9418
-34.4988
-24.9963
-18.78
-13.4046
-9.45137
-6.91936
-5.21898
-3.92112
-2.88804
-2.07958
-1.4523
-0.959494
-0.565971
-0.249531
0.0062799
0.217695
0.390599
0.522055
0.59319
0.55821
0.352069
23.4632
22.5039
20.1363
16.174
10.2932
1.897
-9.90427
-26.3105
-48.8204
-78.9793
-116.89
-158.495
-191.934
-199.465
-175.471
-136.009
-99.8551
-73.1113
-53.959
-39.808
-29.2134
-21.3379
-15.1558
-10.4736
-7.09938
-4.68466
-2.91356
-1.59742
-0.627897
0.0764032
0.583957
0.947196
1.20264
1.37442
1.47966
1.52337
1.49835
1.38175
1.12819
0.665333
22.1369
21.0903
18.5053
14.1902
7.82589
-1.16114
-13.5644
-30.3141
-52.3072
-79.9373
-112.028
-144.291
-168.609
-175.297
-160.454
-131.642
-101.088
-75.8757
-56.7539
-42.2558
-31.18
-22.7922
-16.4549
-11.6828
-8.16528
-5.61826
-3.76353
-2.38993
-1.36417
-0.598447
-0.0273589
0.398447
0.713287
0.939093
1.08837
1.16344
1.15608
1.04706
0.810416
0.439548
55.4907
56.3763
58.564
62.1142
67.0782
73.5815
81.7417
91.5174
102.549
113.929
123.944
129.946
129.25
120.788
106.405
89.7747
73.595
59.0824
46.7356
36.686
28.7709
22.6178
17.825
14.1025
11.2457
9.05207
7.35533
6.04435
5.03778
4.26681
3.67423
3.20793
2.83502
2.53161
2.26917
2.02477
1.77033
1.4664
1.06103
0.476348
54.5183
55.3788
57.5119
60.9995
65.9346
72.5128
80.9676
91.4355
103.782
117.303
130.268
138.803
138.289
127.126
109.145
89.9832
72.3074
56.978
44.3801
34.497
26.9929
21.1433
16.547
13.031
10.3821
8.33794
6.73485
5.48612
4.52041
3.77457
3.20309
2.75167
2.38956
2.095
1.85275
1.63892
1.42755
1.18543
0.862692
0.383053
52.6046
53.4052
55.4074
58.7276
63.53
70.1379
79.0112
90.6726
105.555
123.583
142.661
157.195
156.953
139.405
114.67
91.2131
70.6188
53.5726
40.3764
30.7648
24.4542
19.1803
14.3725
10.8754
8.47505
6.69383
5.32736
4.29482
3.51442
2.91679
2.44668
2.08533
1.8117
1.60151
1.44414
1.32924
1.24552
1.16578
1.02273
0.625587
49.8127
50.507
52.2662
55.2394
59.6666
66.0178
75.0545
87.9205
106.274
132.483
162.923
194.528
198.391
167.274
130.12
100.484
74.1758
53.7102
38.9076
28.7317
19.6307
16.9925
11.7371
7.89947
5.33818
3.47706
2.12895
1.17236
0.498688
0.00890925
-0.357418
-0.622945
-0.806599
-0.932428
-0.997694
-0.988785
-0.890014
-0.69198
-0.41997
-0.253388
46.2603
46.7922
48.1614
50.5285
54.1717
59.6429
67.9132
80.6567
100.796
137.227
194.879
262.794
280.556
192.188
135.372
98.3257
64.0938
41.1963
26.8784
18.5818
15.7376
8.35733
5.78293
4.10873
2.43338
0.993893
-0.0893311
-0.936793
-1.59525
-2.114
-2.52513
-2.8314
-3.04452
-3.18077
-3.22679
-3.13889
-2.86471
-2.31982
-1.43678
-0.483518
42.1353
42.4452
43.2654
44.7306
47.0809
50.7966
56.7767
66.7593
84.3574
128.753
207.568
377.154
518.094
175.05
158.148
98.4495
50.5725
25.2546
11.8305
4.25977
-2.3139
-30.3232
-27.2317
-25.4436
-24.5673
-23.4914
-22.4036
-21.475
-20.7178
-20.0574
-19.4544
-18.9118
-18.3919
-17.8559
-17.2687
-16.5719
-15.6444
-14.2333
-11.7745
-6.86099
37.7035
37.7431
37.885
38.1997
38.8008
39.9004
41.8999
45.564
52.395
84.7718
152.052
373.455
1815.77
273.484
72.2137
15.6842
-2.16045
-9.56787
-15.5476
-21.244
-2.66298
-4.78109
-9.67309
-12.1994
-13.1075
-13.4567
-13.6271
-13.6932
-13.66
-13.5483
-13.3968
-13.1754
-12.8923
-12.5275
-12.0214
-11.2606
-10.012
-7.83641
-4.05992
33.2854
33.0356
32.4472
31.5069
30.1603
28.2743
25.5833
21.5016
14.5576
16.9221
6.52437
-118.633
-828.095
-857.936
-233.062
-76.8339
-43.2027
-30.9727
-24.63
-19.3294
-14.0639
-22.6955
-18.0427
-13.9965
-11.749
-10.137
-8.85241
-7.8881
-7.18709
-6.66796
-6.27154
-5.95089
-5.68996
-5.45135
-5.19171
-4.85677
-4.37138
-3.61858
-2.46504
-0.938862
29.2307
28.7047
27.434
25.3216
22.1803
17.6218
10.949
0.894148
-14.9632
-33.3151
-87.7271
-197.715
-362.296
-381.491
-238.566
-133.169
-80.9875
-53.15
-37.1202
-26.9778
-21.0102
-19.566
-12.9375
-7.7808
-5.25516
-3.94784
-3.06645
-2.44074
-2.01901
-1.73686
-1.53828
-1.39081
-1.27476
-1.16159
-1.03024
-0.856546
-0.611536
-0.267477
0.161273
0.480065
25.8647
25.117
23.2886
20.2372
15.7056
9.19248
-0.127864
-13.5838
-33.3669
-63.235
-104.668
-157.277
-205.537
-213.346
-174.667
-124.931
-87.032
-61.9815
-45.1284
-33.3163
-25.2593
-20.5207
-15.1879
-10.9078
-8.1422
-6.27641
-4.844
-3.70475
-2.81644
-2.13023
-1.59499
-1.17048
-0.832747
-0.554156
-0.31549
-0.101356
0.0980558
0.28097
0.414362
0.398216
23.4609
22.5627
20.3501
16.6651
11.2366
3.55701
-7.12468
-21.8079
-41.7205
-68.1098
-101.011
-136.971
-166.107
-173.277
-153.691
-120.738
-90.0744
-66.9353
-50.0589
-37.4801
-28.0947
-21.198
-15.6454
-11.2027
-7.88383
-5.4679
-3.67668
-2.3309
-1.32616
-0.583733
-0.0366504
0.366722
0.662832
0.878783
1.03307
1.13537
1.18548
1.16852
1.04397
0.714563
22.2114
21.2361
18.8301
14.8313
8.9734
0.770127
-10.4479
-25.4552
-44.9794
-69.3087
-97.4031
-125.607
-147.045
-153.454
-141.43
-117.365
-91.3407
-69.4513
-52.5616
-39.6118
-29.6736
-22.1405
-16.4035
-11.9579
-8.58452
-6.09249
-4.24948
-2.86393
-1.81301
-1.01575
-0.41108
0.0481833
0.396084
0.65614
0.842709
0.961995
1.0103
0.973164
0.825346
0.532629
53.4992
54.2313
56.0441
58.9793
63.0599
68.3614
74.9456
82.7343
91.3872
100.134
107.608
111.818
110.729
103.557
91.748
78.0512
64.5283
52.1821
41.4988
32.6627
25.5865
20.0183
15.6858
12.3389
9.75952
7.75821
6.1951
4.97763
4.03572
3.3115
2.76277
2.33012
1.98494
1.7151
1.47605
1.26077
1.05341
0.818177
0.523458
0.14271
52.5728
53.2808
55.0385
57.9055
61.9373
67.2623
74.0264
82.2784
91.8289
102.024
111.413
117.352
116.326
107.2
92.8716
77.4622
62.9236
50.0126
39.179
30.4737
23.63
18.3167
14.2026
11.0662
8.67021
6.79827
5.31769
4.15047
3.22998
2.50387
1.99752
1.59293
1.25946
0.980109
0.773812
0.608529
0.453362
0.294198
0.110179
-0.0909
50.7543
51.4055
53.0363
55.7338
59.6088
64.884
71.87
80.8889
92.1365
105.367
118.932
128.635
127.491
113.671
94.6523
76.4806
60.0836
46.0447
34.8604
26.3345
19.828
15.1486
11.3081
8.40621
6.2574
4.61114
3.34091
2.38884
1.66514
1.13035
0.672322
0.340204
0.11349
-0.0359933
-0.131072
-0.173206
-0.168031
-0.119448
-0.0517256
-0.0250304
48.11
48.6637
50.068
52.4374
55.9383
60.9022
67.8543
77.5456
90.9839
109.406
134.316
156.696
158.436
134.274
105.866
82.7672
61.6767
44.8641
32.4257
23.5835
12.3671
9.61019
6.41527
3.75003
1.64613
0.00549915
-1.27039
-2.23721
-2.90598
-3.38171
-3.73062
-3.95921
-4.0862
-4.14123
-4.12453
-4.00962
-3.7736
-3.36744
-2.71395
-1.64737
44.7614
45.1652
46.2195
48.0417
50.8259
54.9632
61.1194
70.4119
84.7296
113.574
154.304
202.223
211.42
142.859
103.144
75.3525
48.4243
30.1032
18.5073
11.8814
10.2454
-1.90967
-3.5353
-4.66146
-5.98599
-7.11281
-7.94558
-8.69219
-9.13214
-9.40545
-9.57301
-9.66446
-9.63918
-9.50452
-9.31809
-8.99033
-8.44647
-7.5425
-6.03234
-3.53127
40.8862
41.0946
41.6657
42.6962
44.3529
46.9628
51.1294
57.9881
69.845
103.835
163.711
292.35
396.78
106.03
118.053
60.4752
21.9209
2.47524
-7.41003
-12.0253
-9.73661
-23.7363
-25.7177
-30.0077
-31.4976
-31.5002
-31.0455
-30.3335
-29.6772
-28.9987
-28.2879
-27.532
-26.7881
-26.0406
-25.1832
-24.1698
-22.8602
-20.9072
-17.4933
-10.5838
36.7369
36.7116
36.6941
36.7325
36.8968
37.3126
38.2155
40.0447
43.6494
67.8396
119.022
301.219
1632.93
264.724
-15.0623
-59.3281
-68.2081
-69.2599
-67.7926
-62.6417
-35.2784
-34.3016
-36.6612
-37.0572
-36.2343
-35.1584
-34.0886
-33.0799
-32.0998
-31.1361
-30.2087
-29.2863
-28.3221
-27.3205
-26.1904
-24.7766
-22.706
-19.1136
-11.7497
32.6126
32.3377
31.6903
30.654
29.1729
27.1154
24.2297
20.0067
13.2835
14.141
4.84946
-93.184
-658.327
-650.081
-188.64
-80.0614
-55.1969
-44.14
-37.4389
-31.8241
-29.2626
-31.5634
-26.9064
-22.8043
-20.384
-18.565
-17.1046
-15.9699
-15.0885
-14.3851
-13.803
-13.3064
-12.8795
-12.442
-11.9774
-11.4276
-10.6867
-9.56422
-7.7073
-4.40546
28.8336
28.3225
27.0848
25.0459
22.05
17.7732
11.652
2.71398
-10.7329
-26.3114
-69.628
-153.604
-277.433
-293.068
-189.465
-112.123
-72.2001
-49.5557
-35.8176
-27.1045
-24.3464
-19.1609
-15.0319
-11.7966
-9.88274
-8.6092
-7.62363
-6.84963
-6.24769
-5.7733
-5.38749
-5.06231
-4.78336
-4.51699
-4.23917
-3.92013
-3.5144
-2.95681
-2.15709
-0.996691
25.6975
24.9937
23.279
20.4359
16.2609
10.3487
2.04623
-9.66286
-26.3961
-50.8882
-83.9542
-124.744
-161.44
-168.903
-141.563
-104.695
-75.2885
-54.8362
-40.4647
-30.0843
-22.8455
-18.7094
-14.9261
-11.7611
-9.40642
-7.63831
-6.24267
-5.12671
-4.24235
-3.54323
-2.98632
-2.53591
-2.16851
-1.85516
-1.57491
-1.30915
-1.04253
-0.761237
-0.458479
-0.123139
23.4591
22.627
20.5807
17.1943
12.255
5.35596
-4.09695
-16.8702
-33.8585
-55.9024
-82.8533
-111.844
-135.362
-141.711
-127.534
-102.625
-78.4377
-59.4112
-45.0369
-34.067
-25.7458
-19.6241
-14.9045
-11.1703
-8.31911
-6.18656
-4.57813
-3.35303
-2.41913
-1.7083
-1.16531
-0.747811
-0.424706
-0.172032
0.0269544
0.182183
0.295263
0.359132
0.357385
0.27766
22.2956
21.3962
19.1838
15.5264
10.2173
2.86867
-7.04904
-20.1299
-36.8945
-57.4745
-80.9316
-104.284
-122.093
-127.914
-119.175
-100.509
-79.7421
-61.6612
-47.2634
-35.9724
-27.174
-20.4527
-15.3698
-11.4815
-8.52221
-6.2935
-4.61162
-3.33002
-2.34768
-1.59392
-1.01508
-0.569113
-0.225021
0.038747
0.23631
0.374853
0.452016
0.457642
0.382021
0.248655
51.4571
52.037
53.4777
55.8003
59.0011
63.1082
68.1288
73.9517
80.2575
86.4122
91.3799
93.7649
92.2156
86.2705
76.9677
66.1802
55.3609
45.2747
36.3514
28.8095
22.6492
17.736
13.9084
11.0011
8.77874
7.04003
5.66945
4.59897
3.77201
3.13723
2.65136
2.2715
1.97054
1.72888
1.52351
1.33643
1.14467
0.918188
0.620619
0.208198
50.5792
51.1347
52.5206
54.7698
57.902
61.9804
67.0662
73.1246
79.9184
86.8589
92.8104
95.9239
94.1452
86.907
76.1981
64.5995
53.3865
43.1109
34.2048
26.8338
20.8796
16.1432
12.5036
9.84832
7.85846
6.29975
5.06592
4.09482
3.33187
2.73394
2.27266
1.90539
1.60919
1.36847
1.17329
1.00704
0.849023
0.675759
0.45336
0.137657
48.8595
49.3601
50.6246
52.7021
55.6531
59.6021
64.7117
71.1083
78.763
87.2829
95.4529
100.391
97.7792
87.0325
73.4148
60.5613
48.6729
37.9597
28.9773
21.7871
16.0521
11.6299
8.85177
6.89849
5.26942
3.94499
2.94385
2.21199
1.67678
1.28456
0.989619
0.778635
0.633946
0.536975
0.477221
0.451972
0.455889
0.473689
0.462202
0.292882
46.3687
46.7772
47.8327
49.6024
52.1803
55.7619
60.636
67.1621
75.7177
86.5587
98.1855
107.183
102.517
84.4362
67.3361
53.926
41.5737
30.917
22.4962
15.7747
9.19892
2.95694
2.91869
3.22694
2.54296
1.57352
0.724496
0.0439701
-0.484488
-0.895443
-1.2119
-1.44006
-1.58919
-1.67393
-1.69328
-1.63074
-1.46999
-1.18888
-0.783973
-0.338602
43.2324
43.5045
44.2459
45.5302
47.455
50.2591
54.2969
60.1016
68.4061
88.0247
108.781
130.15
125.899
85.5664
62.8665
49.0924
32.6865
20.2436
11.9884
6.46972
1.14403
-12.9198
-10.5776
-7.66199
-6.38148
-5.79417
-5.42957
-5.20646
-5.05565
-4.95892
-4.89657
-4.84489
-4.78263
-4.69888
-4.56485
-4.33151
-3.93692
-3.2839
-2.27516
-0.981153
39.6029
39.7166
40.0396
40.6378
41.6005
43.1023
45.4418
49.1142
54.96
75.9564
102.779
148.412
169.141
29.0582
24.1332
6.5173
-3.99295
-8.89374
-12.1519
-14.258
-19.8933
-12.3019
-14.0831
-16.1907
-16.8921
-16.9824
-16.8915
-16.7114
-16.4951
-16.236
-15.9314
-15.5679
-15.1746
-14.7493
-14.2315
-13.569
-12.6585
-11.2732
-8.97964
-5.04847
35.748
35.6583
35.4812
35.2435
34.9691
34.6941
34.4736
34.3765
34.4552
47.943
59.3042
129.59
170.821
-703.133
-135.406
-95.9041
-69.8403
-62.7029
-57.3173
-53.3641
-67.1224
-39.5943
-37.4829
-35.5886
-33.7849
-31.958
-30.31
-28.8784
-27.6263
-26.5051
-25.4827
-24.5408
-23.6594
-22.7806
-21.8718
-20.8693
-19.656
-17.9476
-15.1177
-9.55271
31.9212
31.6231
30.9163
29.7826
28.165
25.9264
22.8121
18.343
11.5593
10.005
-11.4094
-79.9151
-303.166
-256.064
-109.134
-62.013
-40.7334
-30.1721
-23.9132
-18.9277
-10.7055
4.75711
1.94085
-1.76957
-3.40804
-4.15777
-4.62605
-4.95029
-5.16691
-5.3035
-5.38176
-5.42222
-5.41803
-5.34372
-5.18356
-4.9138
-4.46741
-3.71978
-2.51159
-0.889547
28.426
27.9284
26.726
24.7596
21.906
17.9019
12.2973
4.32192
-7.45301
-25.8945
-49.4634
-103.323
-174.11
-187.388
-131.624
-85.5292
-58.2622
-40.986
-29.7102
-21.6019
-11.1351
-1.86137
-2.66943
-4.07388
-4.11441
-3.67446
-3.23526
-2.86263
-2.54467
-2.27621
-2.05139
-1.85903
-1.69131
-1.53496
-1.35986
-1.14532
-0.867086
-0.492374
-0.02959
0.339769
25.5272
24.8687
23.2637
20.6279
16.8081
11.4937
4.20124
-5.78738
-19.496
-38.2315
-62.7618
-91.1966
-115.962
-122.471
-106.772
-82.8301
-61.9184
-46.219
-34.4772
-25.2907
-17.6131
-12.3478
-9.37005
-7.23789
-5.36326
-3.82711
-2.66657
-1.80499
-1.16052
-0.677199
-0.314245
-0.0389699
0.170918
0.33795
0.484816
0.623123
0.757516
0.879377
0.938587
0.772391
23.4585
22.6909
20.8116
17.7235
13.273
7.1533
-1.0728
-11.9389
-25.9965
-43.6035
-64.3554
-86.1553
-103.505
-109.119
-100.516
-83.5808
-65.9586
-51.1521
-39.3731
-29.9692
-22.417
-16.5475
-12.0494
-8.73278
-6.2526
-4.37233
-2.95008
-1.87421
-1.05681
-0.433588
0.0421241
0.405607
0.682991
0.894109
1.05273
1.16555
1.22854
1.22205
1.09856
0.756101
22.3839
21.5606
19.5406
16.2254
11.4664
4.97185
-3.64785
-14.8025
-28.7988
-45.5869
-64.2985
-82.6443
-96.6094
-101.717
-96.1743
-82.9481
-67.3962
-53.153
-41.3187
-31.7149
-23.9882
-17.893
-13.2068
-9.67711
-7.00062
-4.93983
-3.34901
-2.12613
-1.189
-0.471958
0.0753865
0.491385
0.805125
1.03712
1.2001
1.29968
1.32975
1.27139
1.08702
0.713773
49.5081
49.9484
51.0478
52.8121
55.2126
58.2403
61.8606
65.9449
70.2094
74.1576
77.0519
77.982
76.1425
71.3252
64.2098
55.9646
47.5403
39.5067
32.2346
25.9605
20.7578
16.5769
13.3095
10.7994
8.84199
7.27882
6.02607
5.03198
4.24996
3.63581
3.15201
2.76648
2.45314
2.1904
1.95795
1.73523
1.49651
1.2096
0.833603
0.317307
48.6766
49.0933
50.1381
51.827
54.1433
57.1006
60.6945
64.8366
69.2792
73.5317
76.7788
77.8861
75.7637
70.2407
62.4823
53.9621
45.4914
37.4865
30.3329
24.2701
19.319
15.3988
12.4137
10.1606
8.39224
6.96373
5.81132
4.88735
4.14541
3.54656
3.0618
2.66708
2.34107
2.06572
1.82508
1.60308
1.37673
1.1146
0.772678
0.295089
47.0518
47.4168
48.3433
49.8625
51.9811
54.7477
58.2131
62.3683
67.0531
71.8218
75.7315
77.1428
74.1396
66.7965
57.8167
49.1353
40.8419
32.9805
26.0587
20.3497
15.8066
12.3964
10.1148
8.33999
6.76437
5.43219
4.38835
3.59333
2.98702
2.52149
2.16279
1.88619
1.67417
1.51136
1.38465
1.28305
1.19
1.07516
0.877713
0.46845
44.7078
44.9896
45.7245
46.9511
48.7067
51.0715
54.1594
58.0656
62.7839
68.0228
72.8061
74.7015
69.9528
59.2875
49.0695
41.0041