/*--------------------------------*- C++ -*----------------------------------*\
| =========                 |                                                 |
| \\      /  F ield         | OpenFOAM: The Open Source CFD Toolbox           |
|  \\    /   O peration     | Version:  2306                                  |
|   \\  /    A nd           | Website:  www.openfoam.com                      |
|    \\/     M anipulation  |                                                 |
\*---------------------------------------------------------------------------*/
FoamFile
{
    version     2.0;
    format      ascii;
    arch        "LSB;label=32;scalar=64";
    class       surfaceScalarField;
    location    "1.7";
    object      phi;
}
// * * * * * * * * * * * * * * * * * * * * * * * * * * * * * * * * * * * * * //

dimensions      [0 3 -1 0 0 0 0];

oriented        oriented;

internalField   nonuniform List<scalar> 
338621
(
24.9952
0.0021828
0.0012874
24.9877
0.00479509
0.00267175
24.9757
0.00773272
0.0042583
24.9586
0.010858
0.00619485
24.9355
0.0142863
0.00879643
24.9029
0.0204343
0.012231
24.8562
0.0300927
0.0166144
24.7932
0.0408859
0.0222529
24.7311
0.0329111
0.0293689
24.6875
0.00595593
0.0378433
24.6586
-0.0182286
0.0474883
24.5841
0.017239
0.0577151
24.6125
-0.0959469
0.0680678
24.7434
-0.207994
0.0775845
24.7863
-0.128137
0.0857137
24.8198
-0.12549
0.0922432
24.8495
-0.126959
0.0973775
24.8732
-0.125352
0.101679
24.8926
-0.124717
0.105227
24.9188
-0.134467
0.108252
24.9479
-0.139777
0.11062
24.9698
-0.134572
0.112638
24.9864
-0.13096
0.114358
24.9999
-0.129144
0.115646
25.0113
-0.128078
0.116667
25.0209
-0.127101
0.117458
25.0294
-0.126502
0.117971
25.0369
-0.125703
0.118228
25.0434
-0.124861
0.118355
25.0493
-0.124244
0.118357
25.0547
-0.123622
0.118247
25.0597
-0.123036
0.118028
25.0643
-0.122441
0.117833
25.0685
-0.121868
0.117658
25.0724
-0.121364
0.117474
25.0763
-0.121257
0.117313
25.0803
-0.121068
0.117132
25.0843
-0.121002
0.117002
25.0885
-0.121116
0.116874
-0.121681
0.116499
24.9951
0.00436715
0.00125909
24.9876
0.00974456
0.0025848
24.9751
0.0160039
0.00415413
24.9579
0.0219735
0.00607307
24.9348
0.0287886
0.00865034
24.9053
0.0379317
0.0119751
24.8696
0.0494129
0.0164028
24.8238
0.0646915
0.0221258
24.7589
0.0684587
0.0294275
24.6837
0.04302
0.0383578
24.6401
-0.0231699
0.0488557
24.6262
-0.0284316
0.0600621
24.6646
-0.205895
0.0719622
24.7495
-0.375086
0.0826985
24.8313
-0.301095
0.0914971
24.9011
-0.293449
0.0983293
24.9543
-0.283745
0.103621
24.9968
-0.275804
0.107949
25.0415
-0.281052
0.111535
25.0749
-0.282278
0.114421
25.0943
-0.27607
0.116786
25.1078
-0.266774
0.118696
25.1167
-0.260203
0.120365
25.1235
-0.257601
0.121637
25.1285
-0.255729
0.122605
25.1325
-0.254362
0.123279
25.1351
-0.252887
0.123745
25.1375
-0.252034
0.123988
25.1397
-0.2512
0.124082
25.1415
-0.250071
0.124061
25.1431
-0.249151
0.123953
25.1442
-0.247975
0.12379
25.1455
-0.247338
0.123623
25.1467
-0.246511
0.12346
25.1478
-0.245823
0.123303
25.1489
-0.245595
0.123199
25.1502
-0.245384
0.123052
25.1517
-0.245472
0.122962
25.1539
-0.246104
0.12282
-0.246411
0.122464
24.9954
0.00624189
0.00119543
24.9879
0.0148018
0.00245951
24.9761
0.0238697
0.00392685
24.9583
0.0339761
0.00583506
24.934
0.0447168
0.00832499
24.9028
0.0574994
0.0115995
24.8629
0.0733581
0.0160572
24.8135
0.0922144
0.0218905
24.7442
0.108315
0.02959
24.6454
0.102404
0.0394832
24.5675
0.00616037
0.0516553
-0.0051225
0.00627579
-0.00404404
24.663
-0.037919
0.0657061
-0.0576853
-0.0369023
-0.0568212
24.5554
-0.0106147
0.0789991
-0.0950798
0.022227
-0.0933454
24.7296
-0.182184
0.0914351
-0.12415
-0.211865
-0.122192
24.8254
-0.129276
0.100622
-0.121933
-0.126896
-0.119221
24.8882
-0.118286
0.107356
-0.116224
-0.115428
-0.113635
24.9431
-0.114089
0.112502
-0.114189
-0.111765
-0.111235
25.0089
-0.116356
0.116744
-0.11527
-0.113945
-0.112952
25.0513
-0.112727
0.120275
-0.111368
-0.110461
-0.109271
25.0761
-0.109075
0.123032
-0.108137
-0.106888
-0.105996
25.0934
-0.41867
0.125281
25.1064
-0.406946
0.12709
25.1141
-0.396599
0.128687
25.1198
-0.393248
0.129982
25.1243
-0.391168
0.130958
25.1275
-0.389157
0.131566
25.1296
-0.38685
0.131837
25.1314
-0.385685
0.131832
25.1323
-0.383743
0.131619
25.1335
-0.382479
0.131271
25.1341
-0.380651
0.130846
25.1348
-0.379068
0.130403
25.1351
-0.377568
0.129938
25.1354
-0.376455
0.129621
25.1354
-0.375078
0.129299
25.1352
-0.374537
0.129092
25.1354
-0.374417
0.128883
25.1357
-0.374565
0.128742
25.1362
-0.375108
0.128566
-0.375888
0.12822
24.9957
0.00842103
0.00109936
24.9891
0.0191475
0.00227054
24.9774
0.0318818
0.00361079
24.9607
0.0452682
0.00542486
24.9363
0.061413
0.00775301
24.9019
0.0809565
0.0108995
24.8564
0.103723
0.0152189
24.7981
0.129546
0.0210353
24.731
0.146448
0.0289891
6.14125
0.0377847
0.0398118
0.0551798
0.0388723
0.0552247
6.16327
6.14061
6.16136
6.12347
0.0181128
0.00583993
-6.11012
6.09768
-0.0331896
0.00773461
-6.10137
6.12268
-0.0415725
0.0096805
-6.11498
6.14207
-0.220908
0.0116582
-6.1612
6.176
-0.157153
0.0130979
-6.18982
6.20105
-0.143506
0.0139913
-6.21278
6.22743
-0.143437
0.0146944
-6.2396
6.24693
-0.13899
0.0152919
-6.25275
6.25791
-0.13367
0.0157806
-6.26221
6.26604
-0.129106
0.0162015
25.1042
-0.142776
0.13585
-0.143894
-0.141079
-0.143088
-6.26942
-6.27409
-6.2699
-6.27446
25.1094
-0.550197
0.138001
25.111
-0.537329
0.139171
25.1125
-0.534662
0.139876
25.1122
-0.531238
0.140364
25.1106
-0.528028
0.140538
25.1089
-0.525574
0.140381
25.1064
-0.523159
0.13995
25.1035
-0.520111
0.139322
25.1001
-0.517697
0.138582
25.0966
-0.514968
0.137802
25.0927
-0.51222
0.137053
25.0883
-0.50949
0.136344
25.0836
-0.507657
0.135862
25.0787
-0.505582
0.135418
25.0732
-0.504185
0.135131
25.0675
-0.503521
0.13486
25.0615
-0.503193
0.134591
25.0564
-0.504278
0.13427
-0.504723
0.133694
24.9973
0.00895178
0.000969379
24.9915
0.0229842
0.00200922
24.9818
0.0383452
0.00319525
24.9665
0.0557839
0.00481356
24.9437
0.0772721
0.00688768
24.9104
0.104557
0.00970144
24.8606
0.140024
0.0135622
24.7864
0.184877
0.0189457
6.17138
0.235808
0.0263589
6.16405
6.17121
6.16406
6.15517
0.0500426
0.00395453
6.12921
0.0056092
-6.15749
0.0205306
0.0121761
0.0120049
0.0206417
-0.0426866
-6.07595
6.04105
0.00770135
-0.00162363
0.00454618
0.00424494
-0.00153375
0.0215791
-6.03998
6.05789
0.0100457
0.0293156
-0.0399516
-0.0400533
-0.0189847
0.0417469
-6.11029
6.13602
0.0126976
-0.0523831
-0.0669897
-0.104836
-0.0528377
0.238635
-6.16942
6.18252
0.0141592
-0.0513759
-0.0552427
-0.0545436
-0.0517799
0.185687
-6.19523
6.20944
0.0149958
-0.0514104
-0.0508164
-0.0506304
-0.0515874
0.175224
-6.22355
6.23566
0.015646
-0.0492302
-0.0493289
-0.0491409
-0.049426
0.169345
-6.2454
6.25261
0.0162004
-0.0463548
-0.0463339
-0.0461621
-0.0465103
0.161936
-6.25884
6.26321
0.016697
-0.0437935
-0.0439716
-0.043855
-0.0438998
0.154458
-6.26703
6.26888
0.0171745
-0.0417031
-0.0420536
-0.0419683
-0.0417853
0.148493
-6.27168
6.27315
-0.16211
0.0178744
25.0473
-0.658216
0.14248
-6.27283
-6.26639
-6.27412
-6.26845
25.0197
-0.652204
0.142505
24.9908
-0.646355
0.140607
24.9623
-0.640709
0.137983
24.9357
-0.636295
0.134873
24.9108
-0.632089
0.131416
24.8874
-0.627616
0.127798
24.8662
-0.623062
0.124222
24.846
-0.61834
0.120858
24.827
-0.613835
0.11785
24.8091
-0.609615
0.115291
24.792
-0.605643
0.113189
24.775
-0.602291
0.111647
24.7586
-0.599639
0.110491
24.7423
-0.597576
0.109669
24.7262
-0.59644
0.109018
24.7109
-0.59624
0.108371
24.6965
-0.597505
0.107578
-0.601035
0.106327
24.9999
0.00753205
0.000812521
24.9966
0.0245858
0.0016917
24.9891
0.0431381
0.00269219
24.9774
0.0634849
0.0039785
24.9599
0.089093
0.0056839
24.933
0.12355
0.00793597
24.8901
0.17198
0.0109614
24.818
0.241792
0.0152055
6.1711
0.349567
0.0209398
6.17068
6.1711
6.17053
-0.0660722
6.14543
0.0885994
0.00315075
-0.0199786
-1.52766
1.52248
0.024562
0.000597154
-0.0199781
-1.50406
1.49181
0.0314668
0.000763468
-1.46778
0.0517869
1.47752
-0.0626833
0.00116148
-1.5288
0.084843
1.53749
-0.0948381
0.00130657
-1.5362
0.0623344
-0.0662888
0.00166157
1.53849
-1.54844
0.0602973
-0.0648709
0.00186217
1.55115
0.0572163
-1.55721
1.55872
-0.0606191
0.00188829
0.0525542
-1.56172
1.56226
-0.0549371
0.00184496
0.0492997
-1.56281
1.56286
-0.0511347
0.0017929
0.0466453
-1.56208
1.56164
-0.0479737
0.00176726
-1.55489
0.177447
6.15801
-0.170926
0.0197876
-1.53988
-1.55394
-1.5356
23.8299
-0.756335
0.0721011
-6.0988
-5.80371
-6.10488
-5.79647
23.8438
-0.73826
0.0721273
23.8544
-0.726962
0.0700701
23.8644
-0.7176
0.0668895
23.8743
-0.709451
0.0632895
23.8844
-0.701806
0.0596125
23.8951
-0.694421
0.0561007
23.9063
-0.687235
0.0529234
23.9181
-0.680357
0.0501809
23.9303
-0.673886
0.0479153
23.9425
-0.667909
0.0461158
23.9548
-0.662649
0.0447049
23.9669
-0.658053
0.0436588
23.9786
-0.654148
0.0428041
23.9901
-0.651145
0.0420165
24.0014
-0.648828
0.0411402
24.0124
-0.647239
0.0399944
24.0228
-0.646331
0.0383886
-0.645656
0.0362109
25.003
0.00366058
0.000639509
25.0036
0.0227028
0.00131662
25.0007
0.0438897
0.00209396
24.9951
0.0661204
0.00300888
24.9864
0.093609
0.00418051
24.973
0.131246
0.00569514
24.9536
0.183819
0.00756208
24.923
0.26245
0.00993281
6.21376
0.389181
0.0127028
6.22185
6.21348
6.22161
-0.106858
6.19849
0.120303
0.00182781
-0.0396706
-1.54226
1.53613
0.0454824
0.000316909
-0.0830415
-1.50672
1.48815
0.101213
0.000398572
0.00432359
-0.0746064
0.0747794
-0.00453248
3.597e-05
-0.0213784
0.000449115
0.0208907
2.73661e-06
3.58696e-05
-0.237512
0.0171031
-0.0279501
0.000875844
0.247483
-1.1864
0.0577951
-0.0755211
-0.00148278
1.20561
0.051342
-1.2444
1.25238
-0.0586015
-0.000718987
0.0487159
-1.27769
1.28636
-0.0570342
-0.000351818
0.0452027
-1.30954
1.31703
-0.0524419
-0.00025107
0.0433196
-1.33707
1.34454
-0.0505289
-0.000261624
-1.3904
0.201704
5.84075
-0.219208
-0.0179151
-1.49642
-1.41787
-1.50064
24.1366
-0.679152
-0.111022
-5.89045
-6.17602
-5.86331
-6.173
24.1632
-0.655114
-0.109703
24.1869
-0.643934
-0.106703
24.2081
-0.635484
-0.103322
24.2262
-0.627751
-0.0998672
24.2418
-0.620895
-0.0964562
24.2555
-0.614798
-0.0932985
24.2678
-0.609171
-0.0904312
24.2795
-0.604026
-0.0879567
24.2908
-0.59934
-0.085896
24.3023
-0.595135
-0.0842664
24.3142
-0.591543
-0.0829738
24.3267
-0.588507
-0.0820675
24.34
-0.586007
-0.081419
24.3539
-0.583956
-0.0810743
24.3686
-0.582492
-0.0810518
24.3839
-0.581232
-0.0813748
24.3995
-0.579826
-0.0821184
-0.577293
-0.0831975
25.0047
-0.00120865
0.000455595
25.0099
0.0165434
0.000937287
25.0148
0.0375485
0.00145235
25.0187
0.0601626
0.00201952
25.0207
0.0890804
0.00261236
25.0258
0.12281
0.00328312
25.0381
0.167612
0.00387085
25.0646
0.231804
0.00416193
6.2748
0.33275
0.00377592
6.28254
6.27509
6.28476
-0.112147
6.28277
0.103805
0.00037039
-0.0447332
-1.5782
1.57996
0.0429599
9.95814e-06
-0.0842026
-1.59879
1.6139
-0.000125828
0.0692211
-0.0257409
-1.71377
1.75242
-0.000768999
0.0555501
-0.0208907
-0.025848
-0.020947
0.100801
-1.71232
1.68258
-0.000996026
-0.0700689
0.102205
-1.60858
-0.0014794
1.5981
-0.0902543
0.0777375
-1.58391
-0.00172117
1.58109
-0.0731953
0.0564236
-1.57671
1.57585
-0.0537353
-0.00183232
0.0571056
-1.57429
1.57254
-0.053472
-0.0018831
0.0515223
-1.57225
1.57163
-0.048986
-0.00191152
0.0480113
-1.57073
1.57024
-0.0455948
-0.00192917
-1.56791
0.180429
6.26576
-0.159736
-0.0162066
-1.56739
-1.56755
-1.5674
25.0705
-0.547333
-0.125157
-6.2691
-6.26872
-6.27043
-6.26893
25.0707
-0.529801
-0.125532
25.0677
-0.515856
-0.12502
25.0641
-0.507599
-0.124351
25.0613
-0.501182
-0.12368
25.0591
-0.495825
-0.122924
25.0576
-0.491085
-0.122155
25.0562
-0.486545
-0.121312
25.0556
-0.482889
-0.120456
25.0551
-0.479296
-0.119615
25.0548
-0.475878
-0.118877
25.0547
-0.473308
-0.118124
25.0546
-0.470902
-0.117566
25.0543
-0.468579
-0.117106
25.0544
-0.467136
-0.116887
25.0546
-0.465734
-0.116948
25.055
-0.46439
-0.117327
25.056
-0.462729
-0.118095
-0.460836
-0.119153
25.0056
-0.00612971
0.00026074
25.0139
0.00767678
0.000559452
25.0268
0.0238449
0.000841836
25.038
0.047906
0.00106
25.0533
0.0726646
0.00116266
25.0767
0.0983152
0.00104124
25.1147
0.129096
0.00051926
25.1782
0.169142
-0.000874626
6.3207
0.231153
-0.00366346
6.31877
6.32494
6.31903
-0.0889322
6.33692
0.0734973
-0.000783931
-0.0332176
6.41379
0.087761
-0.00177271
-0.0343812
-0.0333954
-0.0340331
-6.36474
-0.0331474
6.51766
0.0751572
-0.00370334
-0.0258075
-0.0331381
-0.0258505
-6.47119
-0.00667879
-6.54794
6.51339
-0.00696277
-0.00661623
0.015769
-0.0070293
0.0460372
0.0459243
-6.53452
6.51226
-0.12416
-0.00979847
0.0396939
0.0365809
0.033994
0.0550933
-6.44755
6.41001
-0.176919
-0.0120137
0.055612
0.0573825
0.0583647
0.0560367
-6.37039
6.33872
-0.17397
-0.0133391
0.0547068
0.0549564
0.0532717
0.0461088
-6.32113
6.31042
-0.155403
-0.0142433
0.045166
0.044866
0.0442291
0.0441022
-6.30214
6.29654
-0.154563
-0.0148285
0.0438862
0.0435952
0.0434162
0.0411973
-6.29225
6.28695
-0.142171
-0.0151512
0.0407198
0.0406509
0.0400583
0.0384033
-6.28268
6.2772
-0.13066
-0.0153236
0.0379582
0.037844
0.0372624
0.142687
-6.27555
6.27349
-0.125108
-0.0155262
25.0705
-0.408533
-0.127342
-6.27075
-6.27063
-6.27076
-6.26985
25.0616
-0.393422
-0.127484
25.057
-0.38384
-0.127358
25.0538
-0.377215
-0.127176
25.0518
-0.372328
-0.126875
25.0506
-0.368174
-0.126411
25.05
-0.364727
-0.125805
25.0502
-0.361621
-0.125092
25.0504
-0.358826
-0.124305
25.0509
-0.356295
-0.123483
25.0515
-0.353795
-0.122697
25.0522
-0.352062
-0.121922
25.0526
-0.350072
-0.121191
25.0535
-0.348912
-0.120616
25.0543
-0.347649
-0.120216
25.0549
-0.34637
-0.120014
25.0563
-0.345658
-0.120078
25.0588
-0.344784
-0.120472
-0.344121
-0.121223
25.0062
-0.0110276
0.000156272
25.0158
-0.00228306
0.000301248
25.0245
0.0147978
0.000354045
25.0409
0.0312307
0.000306277
25.0674
0.0461929
-5.91011e-06
25.1008
0.0656832
-0.000721657
25.1483
0.0836903
-0.00208355
25.2147
0.107192
-0.00456972
25.3238
0.130938
-0.00887496
25.4292
0.14472
-0.0159791
-0.0612146
-0.0568614
-0.0586504
-0.0574088
25.5776
0.132378
-0.0268501
-0.0605258
-0.0639048
-0.0618955
-0.0676401
25.7116
0.0546099
-0.0420533
-0.0415753
-0.0275284
-0.0458148
-0.0319026
25.5888
-0.156338
-0.0598503
0.0219439
0.124877
0.0198346
0.171838
25.4964
-0.236896
-0.0781164
0.083712
0.117039
0.0988343
0.107448
25.4286
-0.246252
-0.092762
0.0825728
0.14765
0.030804
0.145516
25.3442
-0.349391
-0.103301
0.134259
0.137023
0.132096
0.133657
25.2613
-0.318976
-0.110098
0.127749
0.131366
0.124869
0.128044
25.1959
-0.329401
-0.114603
0.130813
0.127879
0.127122
0.123782
25.1528
-0.309063
-0.117617
0.120987
0.117989
0.11729
0.113565
25.1286
-0.290967
-0.119687
0.110724
0.110683
0.105809
0.107593
25.1088
-0.277455
-0.121171
0.106471
0.105964
0.103601
0.102474
25.0908
-0.268399
-0.122181
25.0799
-0.259742
-0.122779
25.0729
-0.253553
-0.123238
25.0679
-0.248584
-0.123636
25.0642
-0.24481
-0.123806
25.062
-0.242132
-0.123819
25.06
-0.239081
-0.123684
25.0589
-0.237047
-0.123424
25.0579
-0.234744
-0.123077
25.0574
-0.233143
-0.122672
25.0574
-0.231504
-0.122257
25.057
-0.229791
-0.121874
25.0572
-0.228758
-0.121476
25.0569
-0.227411
-0.121245
25.0568
-0.226481
-0.121119
25.0575
-0.225892
-0.121166
25.0587
-0.225358
-0.121428
25.0599
-0.224042
-0.121948
-0.223101
-0.122729
25.0064
-0.0156451
5.40029e-05
25.0093
-0.00526863
9.6849e-05
25.0168
0.00731746
1.91193e-05
25.0361
0.0121177
-0.000195179
25.0614
0.0217088
-0.000762277
25.0906
0.038356
-0.00186737
25.1384
0.0395973
-0.00373834
25.1996
0.0527379
-0.00678524
25.2789
0.0632765
-0.011671
25.3749
0.0674857
-0.0189868
25.4821
0.0541371
-0.0292766
25.5625
0.0167054
-0.042846
25.5401
-0.0761679
-0.0583302
25.5261
-0.149654
-0.0737185
25.404
-0.0378093
-0.0867811
25.3224
-0.171038
-0.0968938
25.273
-0.165789
-0.103827
25.2119
-0.159487
-0.108817
25.167
-0.151924
-0.112273
25.1349
-0.144041
-0.11477
25.1112
-0.137053
-0.116618
25.0926
-0.131887
-0.117885
25.0793
-0.127598
-0.11883
25.0697
-0.124487
-0.119461
25.063
-0.121972
-0.119883
25.0583
-0.120183
-0.119978
25.0546
-0.11848
-0.119898
25.0524
-0.117239
-0.11966
25.051
-0.116392
-0.119225
25.0501
-0.115158
-0.118708
25.0496
-0.114532
-0.118126
25.0492
-0.113514
-0.117533
25.0494
-0.11308
-0.116929
25.0493
-0.112297
-0.116399
25.0499
-0.111999
-0.115987
25.0504
-0.111323
-0.115692
25.0513
-0.111213
-0.115553
25.0525
-0.110911
-0.115615
25.0548
-0.110451
-0.115932
-0.110974
-0.116562
24.9867
2.22629e-05
24.9814
5.75769e-05
24.9888
-9.40858e-05
25.0013
-0.000323315
25.0241
-0.00102911
25.0647
-0.00223999
25.1085
-0.00426506
25.1687
-0.00751921
25.2444
-0.0125621
25.3315
-0.0197572
25.4147
-0.0294602
25.4727
-0.0417457
25.4515
-0.0555132
25.3706
-0.0692431
25.4137
-0.0813214
25.3337
-0.0913125
25.2663
-0.0984278
25.2102
-0.103446
25.1654
-0.10706
25.1311
-0.109727
25.1058
-0.111736
25.0872
-0.113184
25.0738
-0.114209
25.0642
-0.114848
25.0575
-0.115287
25.0528
-0.115441
25.0497
-0.115404
25.0477
-0.11526
25.0462
-0.114871
25.0455
-0.114429
25.0449
-0.113956
25.0448
-0.113425
25.0446
-0.112895
25.0448
-0.112453
25.045
-0.112168
25.0456
-0.111991
25.0464
-0.111956
25.0476
-0.112112
25.0496
-0.112511
-0.113222
24.996
0.0010645
0.00251397
24.9896
0.0038507
0.00515071
24.9791
0.00647417
0.00822923
24.9635
0.00969124
0.012064
24.9426
0.0126663
0.0170138
24.9137
0.0176052
0.0235317
24.8722
0.0261951
0.032042
24.8152
0.0366138
0.0429811
24.7596
0.0288007
0.0566644
24.7229
0.00186574
0.0733858
24.6971
-0.0179831
0.0923625
24.6338
0.00959219
0.112915
24.6618
-0.0919493
0.133539
24.7799
-0.19179
0.152841
24.8134
-0.115703
0.169171
24.8381
-0.11379
0.182093
24.8612
-0.117476
0.192166
24.8796
-0.116916
0.20028
24.8952
-0.117308
0.20691
24.9212
-0.13026
0.212375
24.9474
-0.13245
0.21676
24.9678
-0.128256
0.220381
24.9841
-0.125385
0.223346
24.9979
-0.123922
0.225725
25.0096
-0.122637
0.22759
25.02
-0.121957
0.228999
25.029
-0.121073
0.230004
25.0368
-0.120252
0.230651
25.0438
-0.119719
0.231033
25.0501
-0.119215
0.231225
25.0556
-0.118482
0.231261
25.0602
-0.117774
0.2312
25.0646
-0.117611
0.231064
25.0688
-0.117483
0.230966
25.0723
-0.11691
0.230827
25.0758
-0.116966
0.230753
25.0792
-0.116848
0.230569
25.0827
-0.116905
0.230429
25.0868
-0.117323
0.230113
-0.1177
0.229088
24.996
0.00223192
0.00244973
24.9896
0.00777567
0.00502811
24.9785
0.0136024
0.00805305
24.9629
0.0195196
0.0118437
24.9415
0.0259656
0.0167584
24.9143
0.0335156
0.0232725
24.8816
0.0435678
0.0318463
24.8393
0.0582765
0.0430326
24.7765
0.0640638
0.0573448
24.7004
0.0418104
0.0751701
24.6564
-0.0203672
0.096117
24.5935
0.014646
0.119257
24.6286
-0.19623
0.142564
24.7618
-0.405111
0.164085
24.8443
-0.287265
0.181602
24.9133
-0.279046
0.195101
24.9636
-0.269622
0.205571
25.0032
-0.262469
0.213853
25.0474
-0.2707
0.220583
25.0786
-0.2731
0.225949
25.0966
-0.264016
0.23022
25.1094
-0.25606
0.233675
25.1179
-0.250129
0.236497
25.1244
-0.247598
0.238734
25.1299
-0.245978
0.240474
25.1337
-0.244362
0.241789
25.1366
-0.24295
0.242766
25.1393
-0.242505
0.243469
25.1414
-0.2417
0.243965
25.1429
-0.240963
0.244299
25.1444
-0.240525
0.244513
25.1459
-0.240127
0.244638
25.1467
-0.239531
0.24475
25.1473
-0.239483
0.244814
25.1484
-0.239529
0.244861
25.1489
-0.239204
0.244879
25.1499
-0.239561
0.244835
25.1514
-0.240129
0.244702
25.1528
-0.240402
0.244421
-0.241295
0.243362
24.996
0.00351422
0.00232569
24.9897
0.0117133
0.00478867
24.9787
0.0207774
0.00769735
24.9625
0.0302017
0.011368
24.9399
0.0406628
0.016172
24.9103
0.052187
0.0226141
24.8725
0.0662176
0.0312561
24.8261
0.0839184
0.0428148
24.7603
0.101582
0.0581276
24.6649
0.09912
0.0779564
24.5855
0.00629809
0.102538
-0.00313176
0.00670171
-0.00115224
24.7175
-0.0362727
0.130405
-0.0564981
-0.0344064
-0.0538519
24.5757
0.023364
0.158279
-0.0931734
0.0265958
-0.0891052
24.7406
-0.212938
0.183712
-0.12239
-0.20859
-0.117257
24.8343
-0.127071
0.202306
-0.119364
-0.122001
-0.113549
24.8954
-0.115855
0.215733
-0.114016
-0.1106
-0.108047
24.9486
-0.112393
0.226055
-0.11171
-0.106801
-0.105842
25.0126
-0.114426
0.234267
-0.113477
-0.108842
-0.10777
25.0539
-0.111227
0.240892
-0.110239
-0.105909
-0.105506
25.0791
-0.108325
0.246038
-0.107081
-0.103817
-0.102249
25.097
-0.406588
0.249881
25.1092
-0.394208
0.252995
25.117
-0.384716
0.255446
25.1225
-0.381195
0.258013
25.1266
-0.378949
0.259832
25.1294
-0.376959
0.261389
25.1314
-0.375247
0.262031
25.1324
-0.374285
0.262617
25.133
-0.373621
0.262978
25.134
-0.373908
0.263192
25.134
-0.373048
0.26331
25.1342
-0.373278
0.263384
25.1349
-0.373452
0.263197
25.1348
-0.373276
0.263505
25.1345
-0.373487
0.263538
25.1345
-0.373676
0.26353
25.1345
-0.374111
0.263424
25.1347
-0.374654
0.263153
25.1355
-0.375367
0.26268
-0.376044
0.261406
24.9969
0.0045501
0.00213754
24.9908
0.0156381
0.00441938
24.98
0.0280534
0.00712545
24.9639
0.0411356
0.0105628
24.9411
0.056086
0.0151076
24.9083
0.0746604
0.021277
24.8637
0.0963333
0.0297593
24.8057
0.121648
0.041425
24.7374
0.141436
0.0575328
6.14286
0.038381
0.0797114
0.0540468
0.0385512
0.0543098
6.16257
6.14348
6.16243
-0.0115786
6.12532
0.017873
0.0175713
-0.0154506
-6.11301
6.1007
-0.0318188
0.0233938
-0.019453
-6.10438
6.09683
0.0210255
0.0294546
-0.0234045
-6.1123
6.14468
-0.257199
0.0353851
-0.0263037
-6.16336
6.17797
-0.154995
0.0396763
-0.0281885
-6.19178
6.20309
-0.141411
0.042428
-0.0295717
-6.21439
6.2289
-0.141902
0.0445153
-0.0306989
-6.24176
6.249
-0.137259
0.0462431
-0.0316323
-6.25478
6.25996
-0.132447
0.0476422
-0.0323978
-6.26362
6.26755
-0.128671
0.0488096
25.1094
-0.141722
0.276498
-0.142233
-0.140721
-0.139135
-6.27131
-6.27548
-6.27088
-6.27517
25.1149
-0.540626
0.278993
25.1164
-0.527719
0.280662
25.117
-0.525232
0.283272
25.1158
-0.522574
0.285163
25.1128
-0.520288
0.286869
25.1097
-0.519347
0.287615
25.1059
-0.518771
0.288242
25.1015
-0.518579
0.288589
25.0966
-0.519124
0.288734
25.0919
-0.519268
0.288745
25.0868
-0.519871
0.288678
25.0814
-0.520005
0.288292
25.076
-0.520411
0.288391
25.0704
-0.520557
0.288087
25.0649
-0.520803
0.287773
25.0589
-0.52042
0.287156
25.0532
-0.520538
0.286228
25.0486
-0.521336
0.284848
-0.521223
0.282379
24.9985
0.00409141
0.00187785
24.9934
0.0187579
0.00390779
24.984
0.0343627
0.00631033
24.9694
0.0511374
0.00936554
24.9474
0.0715652
0.0134222
24.9154
0.0977177
0.0187144
24.8667
0.131905
0.0267018
24.794
0.175877
0.0375532
6.17366
0.227467
0.0530848
6.16643
6.17447
6.16683
-0.0078503
6.1583
0.0496203
0.0119661
-0.0111971
6.13192
0.0170926
-6.16091
0.0203097
0.0116219
0.0203869
0.0114625
-0.0407133
-0.0154574
-6.07857
6.04444
0.0237058
-0.00146754
0.00384769
-0.00175124
0.00405061
0.0212874
-0.0203339
-6.04225
6.05565
0.0312098
0.0523396
-0.0402029
0.0517532
-0.0397248
-0.0483371
-0.0254041
-6.09629
6.138
0.0385661
-0.0515891
-0.129466
-0.0522851
-0.128861
0.307415
-0.0283884
-6.16984
6.1824
0.0424896
-0.0505862
-0.0543394
-0.0513595
-0.0535878
0.183263
-0.0299969
-6.19687
6.2117
0.0445294
-0.0507251
-0.0507802
-0.0514396
-0.0500691
0.173585
-0.0311555
-6.22585
6.2379
0.0461278
-0.0484641
-0.0489602
-0.0489098
-0.0484652
0.16766
-0.0321262
-6.24754
6.25471
0.0475217
-0.0454905
-0.0456908
-0.045831
-0.0455256
0.159907
-0.0329788
-6.26112
6.26537
0.0487905
-0.0432591
-0.0432779
-0.043186
-0.0433318
0.152984
-0.0337585
-6.26936
6.27136
0.0499709
-0.0413789
-0.0414092
-0.0411191
-0.0414579
0.147183
-6.27369
-0.0345098
6.27547
-0.16006
0.0510801
25.0608
-0.645721
0.284809
-6.27667
-6.27169
-6.2773
-6.27231
25.0311
-0.640168
0.284661
24.9992
-0.636728
0.283986
24.967
-0.634087
0.281748
24.9362
-0.633418
0.278799
24.9064
-0.633788
0.275581
24.8785
-0.63462
0.271579
24.8523
-0.635869
0.267753
24.8272
-0.63724
0.264011
24.804
-0.638634
0.260466
24.7823
-0.639906
0.256962
24.7621
-0.640827
0.254271
24.7429
-0.641177
0.251546
24.7252
-0.641322
0.249032
24.7083
-0.640854
0.246603
24.6929
-0.640062
0.244024
24.6789
-0.639173
0.241052
24.6665
-0.638816
0.237459
-0.639831
0.232715
25.002
0.00053728
0.00160895
24.9998
0.0194236
0.00327828
24.9921
0.0394504
0.00526808
24.9801
0.0593398
0.00777653
24.9627
0.0835857
0.0110712
24.9369
0.116453
0.0150322
24.8949
0.163242
0.0217138
24.824
0.231712
0.0303512
6.17301
0.339004
0.0429436
6.17207
6.17341
6.17221
-0.00619662
-0.0645857
6.14751
0.086677
0.0096562
-0.0020324
-0.019475
-1.52808
1.52282
0.0240891
0.00269375
-0.0029981
-0.01912
-1.50419
1.49149
0.0310113
0.00382448
-0.00434263
-1.46837
0.0520697
1.47818
-0.0630423
0.00549716
-0.0060569
-1.52756
0.154043
1.53908
-0.167082
0.007564
-0.00766836
-1.5364
0.0611213
-0.0648362
1.53872
0.0090598
-1.54918
-0.00846964
0.0596477
-0.0637931
0.00952132
1.55228
-0.0089898
0.0556129
-1.55869
1.5603
-0.0577355
0.00950036
-0.00925678
0.0503444
-1.56357
1.56419
-0.0511756
0.009469
-0.00925957
0.0470456
-1.56496
1.56505
-0.0474296
0.00955674
-0.00911768
0.0446451
-1.56436
1.56389
-0.0448468
0.00979503
-1.55803
-0.033728
0.169287
6.17734
-0.149879
0.0408312
-1.54433
-1.55812
-1.54336
23.8478
-0.740537
0.156146
-6.114
-5.80423
-6.10915
-5.80964
23.8507
-0.725376
0.154451
23.8547
-0.721588
0.150926
23.8606
-0.718286
0.14528
23.8676
-0.715958
0.138778
23.8754
-0.714227
0.132243
23.8845
-0.712905
0.125296
23.8945
-0.711854
0.118892
23.9055
-0.710977
0.11298
23.9172
-0.710075
0.10767
23.9296
-0.708995
0.102783
23.9422
-0.707718
0.0990277
23.9551
-0.706081
0.0956155
23.968
-0.704087
0.092694
23.9808
-0.701743
0.0900523
23.9936
-0.699086
0.087439
24.0061
-0.696177
0.0844844
24.0181
-0.69307
0.0806206
-0.689658
0.0747969
25.0089
-0.000668923
0.00124343
25.0095
0.0175552
0.00254835
25.006
0.0409627
0.00405333
24.9992
0.0633158
0.00588164
24.9892
0.089583
0.00818132
24.9757
0.125027
0.0106495
24.9564
0.175113
0.0150075
24.9264
0.251686
0.0199756
6.21415
0.378131
0.0266447
6.2223
6.21425
6.22259
-0.00362809
-0.104628
6.19883
0.1179
0.00569544
-0.00110923
-0.0393449
-1.54218
1.53609
0.0450885
0.00147025
-0.00146766
-0.0829609
-1.50628
1.48794
0.100942
0.00183311
-0.00016882
0.00439227
-0.0747068
0.074937
-0.00462863
0.000174138
0.00471864
-0.247383
0.0208884
-0.0315804
-0.000243001
0.2536
-1.13897
0.0120631
0.0538768
-0.0706285
-0.00498014
1.14863
0.00976675
0.0397186
-1.17118
1.17706
-0.0483361
-0.00703537
0.0083197
0.0368556
-1.20578
1.21819
-0.0490761
-0.00851021
0.00779951
0.0351956
-1.25599
1.26892
-0.0466855
-0.00923699
0.00752689
0.0367571
-1.30477
1.31729
-0.0473323
-0.00946429
-1.37274
0.0305737
0.170762
5.76187
-0.208598
-0.037036
-1.48637
-1.37075
-1.48771
24.0675
-0.677977
-0.219064
-5.83136
-6.16455
-5.85948
-6.16665
24.1026
-0.653471
-0.216637
24.1341
-0.646347
-0.213529
24.1644
-0.641333
-0.210562
24.1934
-0.637067
-0.20771
24.2215
-0.633782
-0.20496
24.2489
-0.631359
-0.202299
24.2757
-0.629362
-0.199692
24.3015
-0.627611
-0.197091
24.3259
-0.625916
-0.194436
24.3487
-0.624367
-0.191709
24.3699
-0.623024
-0.188858
24.3895
-0.621762
-0.18598
24.4073
-0.620251
-0.183062
24.4233
-0.618648
-0.18023
24.4378
-0.616932
-0.177656
24.451
-0.615054
-0.175674
24.463
-0.612534
-0.174689
-0.608342
-0.175326
25.008
-0.0055016
0.000871208
25.0149
0.00985766
0.00179291
25.0213
0.0331928
0.0027818
25.025
0.0578116
0.00387755
25.0241
0.0879979
0.00509274
25.0283
0.117908
0.00614619
25.0403
0.159359
0.00765901
25.0688
0.218796
0.00851986
6.27615
0.308676
0.00838119
6.28823
6.27758
6.29147
-0.000811179
-0.109248
6.28387
0.101043
0.00126947
-6.66494e-05
-0.0443
-1.57807
1.57988
0.0424652
7.89704e-05
0.000473078
-0.0818381
-1.60093
1.61771
0.0651983
-0.000618155
0.00200592
-0.025864
-1.71376
1.75112
0.0574582
-0.00145856
-0.0211629
-0.0268128
-0.0215106
0.00453527
0.112238
-1.71039
1.67926
-0.0802715
-0.00536219
0.106106
-1.60888
0.00639363
1.59773
-0.0938712
-0.00749717
0.00738157
0.0740685
-1.58244
-0.00848441
1.58019
-0.0707366
0.00782343
0.0528366
-1.57686
1.5754
-0.0503228
-0.00887689
0.00787471
0.0544764
-1.57469
1.57331
-0.0519707
-0.0089977
0.00780411
0.0490963
-1.5726
1.57199
-0.0472378
-0.00904794
0.00766178
0.0460102
-1.56927
1.5696
-0.0449668
-0.00903714
-1.56967
0.0304861
0.177019
6.273
-0.157148
-0.0437981
-1.56983
-1.56966
-1.57041
25.0821
-0.531608
-0.254519
-6.27553
-6.2692
-6.28011
-6.2743
25.0827
-0.523983
-0.255566
25.0806
-0.513049
-0.256214
25.0783
-0.506285
-0.257165
25.0762
-0.500452
-0.258108
25.0746
-0.496292
-0.25887
25.0732
-0.492619
-0.259424
25.0718
-0.489503
-0.259759
25.0704
-0.486798
-0.25987
25.0688
-0.484176
-0.259767
25.0671
-0.482052
-0.259492
25.0657
-0.480475
-0.259314
25.0641
-0.479077
-0.258597
25.0621
-0.477304
-0.258114
25.0608
-0.476451
-0.257722
25.0597
-0.475182
-0.257623
25.0591
-0.473766
-0.25801
25.0591
-0.471565
-0.259076
-0.46899
-0.260771
25.0066
-0.00970126
0.00054664
25.0163
-0.000440871
0.00110126
25.0301
0.0186883
0.00159293
25.0381
0.048859
0.00199782
25.0554
0.0697111
0.00219635
25.0786
0.0938127
0.00197976
25.1162
0.121215
0.000967645
25.1815
0.154149
-0.00155435
6.32946
0.195351
-0.00687267
6.31826
6.33363
6.31668
-0.08569
0.00146341
6.34783
0.0681262
-0.00227824
-0.0328914
0.00360193
6.42168
0.08765
-0.00525368
-0.0310208
-0.0331054
-0.0301865
-6.38043
-0.0295058
0.00757539
6.49367
0.0818322
-0.0110324
-0.0287964
-0.0286865
-0.0312041
-6.45389
-0.00901951
0.0132401
-6.54188
6.50018
-0.0585845
-0.0199396
0.0635316
-0.0104208
0.0627988
0.0356034
0.0200886
-6.49222
6.473
-0.144879
-0.0297922
0.052123
0.034726
0.0512286
0.0584019
-6.4489
0.0253821
6.40496
-0.182677
-0.0373329
0.0574651
0.0617747
0.0608268
0.0556828
0.0283436
-6.36496
6.3375
-0.175532
-0.0417963
0.0535941
0.0546053
0.052562
0.0450881
0.0301028
-6.32427
6.3178
-0.156495
-0.0445058
0.0444137
0.0442317
0.0437062
0.0438233
0.0311246
-6.31398
6.30635
-0.152408
-0.0461132
0.0443891
0.0431346
0.0437364
0.0432344
0.0315775
-6.29773
6.28879
-0.142748
-0.0469621
0.0408277
0.0427039
0.040327
0.0384943
0.0317576
-6.28128
6.27341
-0.12654
-0.0473538
0.0355939
0.0390475
0.0368588
0.138187
-6.27183
0.032008
6.27203
-0.122865
-0.0475455
25.0716
-0.390548
-0.26134
-6.27039
-6.26879
-6.27085
-6.2686
25.0642
-0.383166
-0.260966
25.0602
-0.375744
-0.26058
25.0572
-0.369874
-0.260567
25.0557
-0.365428
-0.260427
25.0546
-0.361491
-0.260072
25.0543
-0.358562
-0.259523
25.0545
-0.356034
-0.258803
25.0547
-0.353348
-0.257945
25.0555
-0.351458
-0.25699
25.0561
-0.349343
-0.25596
25.0568
-0.347966