/*--------------------------------*- C++ -*----------------------------------*\
| =========                 |                                                 |
| \\      /  F ield         | OpenFOAM: The Open Source CFD Toolbox           |
|  \\    /   O peration     | Version:  2306                                  |
|   \\  /    A nd           | Website:  www.openfoam.com                      |
|    \\/     M anipulation  |                                                 |
\*---------------------------------------------------------------------------*/
FoamFile
{
    version     2.0;
    format      ascii;
    arch        "LSB;label=32;scalar=64";
    class       volVectorField;
    location    "1.7";
    object      U;
}
// * * * * * * * * * * * * * * * * * * * * * * * * * * * * * * * * * * * * * //

dimensions      [0 1 -1 0 0 0 0];

internalField   nonuniform List<vector> 
111542
(
(99.9934 0.00549824 0.00258252)
(99.9713 0.0112766 0.00537824)
(99.9301 0.01728 0.00850881)
(99.8687 0.0236306 0.0124418)
(99.7853 0.0300475 0.0175727)
(99.678 0.0357326 0.0243673)
(99.5458 0.0388044 0.033115)
(99.3907 0.0362765 0.0443384)
(99.222 0.0234957 0.0585669)
(99.0598 -0.00598394 0.0758267)
(98.9371 -0.0579909 0.0956142)
(98.8951 -0.130275 0.116878)
(98.9609 -0.204677 0.138387)
(99.1267 -0.261353 0.158129)
(99.3483 -0.289221 0.174774)
(99.5762 -0.29763 0.188369)
(99.7816 -0.295691 0.199311)
(99.9547 -0.288524 0.208378)
(100.095 -0.279473 0.215993)
(100.205 -0.270749 0.22249)
(100.289 -0.263636 0.227788)
(100.352 -0.258132 0.23212)
(100.398 -0.253814 0.235836)
(100.432 -0.250934 0.238801)
(100.458 -0.249234 0.241129)
(100.478 -0.248183 0.243078)
(100.495 -0.247822 0.244457)
(100.508 -0.247961 0.245318)
(100.519 -0.248258 0.245849)
(100.528 -0.248567 0.24609)
(100.536 -0.248847 0.24605)
(100.544 -0.249148 0.245719)
(100.55 -0.249342 0.245308)
(100.556 -0.249456 0.244898)
(100.562 -0.249571 0.244518)
(100.568 -0.249792 0.244177)
(100.574 -0.250254 0.243822)
(100.581 -0.250887 0.243597)
(100.59 -0.251757 0.243521)
(100.603 -0.253097 0.243649)
(99.9936 0.0163823 0.00253215)
(99.9719 0.0335291 0.00521452)
(99.9313 0.0517303 0.00833719)
(99.8703 0.0712736 0.0122585)
(99.7863 0.0914963 0.0173631)
(99.6758 0.110258 0.0241057)
(99.5355 0.122588 0.0329639)
(99.3648 0.119628 0.0444975)
(99.1696 0.0867163 0.0592415)
(98.9685 0.00272307 0.0774333)
(98.8028 -0.149973 0.0988026)
(98.7395 -0.365579 0.121664)
(98.8241 -0.591601 0.145046)
(99.0364 -0.755212 0.166569)
(99.3043 -0.8363 0.18436)
(99.562 -0.863924 0.198353)
(99.7829 -0.860939 0.209466)
(99.9631 -0.842021 0.218599)
(100.105 -0.817545 0.226215)
(100.213 -0.793372 0.232531)
(100.294 -0.772817 0.237708)
(100.353 -0.757375 0.242054)
(100.396 -0.74642 0.245774)
(100.427 -0.739284 0.248885)
(100.45 -0.73389 0.251441)
(100.468 -0.728872 0.253521)
(100.483 -0.724434 0.25511)
(100.494 -0.720615 0.256222)
(100.504 -0.717095 0.256908)
(100.513 -0.713743 0.257208)
(100.52 -0.7106 0.25717)
(100.527 -0.707804 0.256864)
(100.534 -0.705293 0.256404)
(100.54 -0.703185 0.255881)
(100.545 -0.701678 0.25536)
(100.551 -0.700987 0.254884)
(100.557 -0.701333 0.254474)
(100.563 -0.702656 0.254169)
(100.571 -0.704995 0.253994)
(100.582 -0.708377 0.254061)
(99.994 0.0268588 0.00240859)
(99.9733 0.0550395 0.00496634)
(99.9343 0.0856769 0.00798219)
(99.8748 0.119488 0.0117886)
(99.7907 0.156095 0.0167742)
(99.6757 0.193083 0.0234294)
(99.5222 0.224075 0.0323386)
(99.3224 0.235389 0.0441958)
(99.0734 0.200345 0.0597745)
(98.7921 0.0703807 0.0797641)
(98.5374 -0.264309 0.104528)
(98.4226 -0.729213 0.132551)
(98.5454 -1.15191 0.158661)
(98.8542 -1.39488 0.182577)
(99.2069 -1.49207 0.20144)
(99.516 -1.51616 0.21547)
(99.7659 -1.49484 0.226336)
(99.9596 -1.45332 0.235236)
(100.105 -1.4076 0.242618)
(100.21 -1.36459 0.248644)
(100.286 -1.32909 0.253579)
(100.338 -1.29936 0.257818)
(100.375 -1.28307 0.261621)
(100.402 -1.2782 0.265073)
(100.423 -1.2772 0.268106)
(100.44 -1.27634 0.270559)
(100.452 -1.27506 0.272286)
(100.462 -1.2733 0.273221)
(100.469 -1.27083 0.273385)
(100.475 -1.26761 0.272878)
(100.481 -1.2638 0.271842)
(100.485 -1.25967 0.270452)
(100.488 -1.25548 0.268893)
(100.491 -1.25156 0.267341)
(100.493 -1.24828 0.265933)
(100.495 -1.246 0.264764)
(100.496 -1.24506 0.26388)
(100.498 -1.24563 0.263293)
(100.501 -1.24769 0.263025)
(100.506 -1.25082 0.263228)
(99.9946 0.036442 0.00221711)
(99.976 0.0750057 0.00458656)
(99.9406 0.117869 0.00739649)
(99.8852 0.166887 0.0109636)
(99.8043 0.223106 0.0156722)
(99.6884 0.285902 0.0220274)
(99.523 0.351003 0.0306866)
(99.2871 0.405868 0.0424858)
(98.9515 0.420895 0.058516)
(98.4514 0.221528 0.0802702)
(98.1927 0.0424589 0.0871087)
(97.841 -0.61602 0.103005)
(97.9021 -1.42435 0.117108)
(98.3822 -1.9476 0.129089)
(98.8938 -2.10282 0.140493)
(99.3011 -2.13036 0.147667)
(99.6279 -2.08452 0.15241)
(99.8703 -2.00561 0.156048)
(100.043 -1.92446 0.159073)
(100.166 -1.8556 0.161642)
(100.318 -1.92204 0.27211)
(100.351 -1.86276 0.277802)
(100.359 -1.82199 0.281844)
(100.362 -1.79934 0.284941)
(100.366 -1.78541 0.287446)
(100.368 -1.77634 0.289133)
(100.366 -1.77032 0.289757)
(100.36 -1.76582 0.289295)
(100.352 -1.76175 0.287902)
(100.343 -1.75766 0.28582)
(100.331 -1.75345 0.283322)
(100.319 -1.74926 0.280685)
(100.305 -1.74536 0.278148)
(100.289 -1.74209 0.275901)
(100.271 -1.73982 0.274065)
(100.252 -1.73898 0.272691)
(100.231 -1.73998 0.271746)
(100.21 -1.74314 0.271145)
(100.188 -1.74849 0.270796)
(100.163 -1.75482 0.270771)
(99.9956 0.0444028 0.00195461)
(99.9806 0.0918371 0.00405905)
(99.9514 0.145755 0.00655657)
(99.9048 0.209721 0.00972566)
(99.8344 0.287358 0.013915)
(99.7285 0.382256 0.0195909)
(99.5676 0.497187 0.0273929)
(99.319 0.630943 0.038162)
(98.8774 0.770495 0.053042)
(98.5329 0.779085 0.0584103)
(97.7167 0.391787 0.0720983)
(96.9034 -0.67361 0.0897026)
(96.9864 -2.33819 0.104054)
(98.1121 -2.96429 0.115514)
(98.8551 -3.00929 0.129352)
(99.3489 -2.95943 0.136292)
(99.7242 -2.82488 0.140276)
(99.9676 -2.67575 0.143602)
(100.12 -2.54448 0.146751)
(100.21 -2.44437 0.149972)
(100.263 -2.39765 0.155409)
(100.17 -2.53244 0.303723)
(100.04 -2.52681 0.305387)
(99.9163 -2.50729 0.302386)
(99.8057 -2.48179 0.296397)
(99.7022 -2.45756 0.288209)
(99.6044 -2.4354 0.2785)
(99.513 -2.41423 0.268125)
(99.4281 -2.3935 0.257963)
(99.349 -2.37324 0.248737)
(99.2749 -2.35369 0.240936)
(99.2048 -2.33518 0.234811)
(99.1376 -2.31811 0.230389)
(99.0725 -2.30289 0.227523)
(99.0086 -2.28994 0.225943)
(98.9454 -2.27967 0.225295)
(98.8828 -2.27253 0.225159)
(98.8214 -2.2691 0.225099)
(98.7631 -2.27042 0.224687)
(98.7022 -2.27876 0.223548)
(99.9971 0.0498206 0.00163532)
(99.9871 0.103499 0.00339874)
(99.9675 0.165739 0.00547589)
(99.9354 0.241931 0.00807729)
(99.8852 0.338741 0.0114645)
(99.8067 0.46535 0.0159857)
(99.6807 0.635372 0.0221137)
(99.4706 0.869233 0.0304484)
(99.0531 1.19887 0.0417198)
(98.6445 1.36302 0.0462445)
(97.6894 1.51003 0.0446816)
(95.5686 0.750129 0.0416234)
(94.3358 -3.40514 0.0556773)
(98.1243 -4.73984 0.0453625)
(98.683 -3.99225 0.0559159)
(99.3158 -3.91808 0.0683913)
(99.7299 -3.66451 0.0650107)
(99.8944 -3.40042 0.048273)
(99.9166 -3.19023 0.0272539)
(99.8425 -3.0144 0.00925401)
(98.6115 -2.82003 0.116438)
(95.1758 -2.50043 0.18495)
(95.2368 -2.56884 0.17272)
(95.3065 -2.60017 0.158299)
(95.3602 -2.61146 0.142171)
(95.4042 -2.61411 0.125513)
(95.4472 -2.61104 0.109679)
(95.4926 -2.60317 0.0958897)
(95.5405 -2.59169 0.0849609)
(95.5904 -2.57805 0.0771928)
(95.6415 -2.56358 0.0724065)
(95.6933 -2.54941 0.0700672)
(95.7449 -2.53649 0.0694231)
(95.7959 -2.52554 0.0696544)
(95.8457 -2.51706 0.0699725)
(95.8942 -2.5114 0.0696824)
(95.9415 -2.50879 0.0682016)
(95.9876 -2.50955 0.0650634)
(96.032 -2.51456 0.0599471)
(96.0816 -2.52646 0.0529617)
(99.9989 0.0518138 0.00128549)
(99.9952 0.107979 0.00264636)
(99.9879 0.174031 0.00421607)
(99.9754 0.256606 0.00611156)
(99.9551 0.364535 0.00846166)
(99.9225 0.511245 0.0114186)
(99.8692 0.71868 0.0151297)
(99.7813 1.02541 0.0196495)
(99.6116 1.50507 0.0247721)
(99.3459 1.90727 0.0270012)
(98.6314 2.85003 0.0245095)
(95.492 5.87993 0.0217789)
(77.0222 -4.1941 0.0390761)
(102.62 -10.277 0.0242987)
(60.3186 -5.84709 -0.0465473)
(75.8404 -4.3502 0.285819)
(79.4501 -3.56085 0.27169)
(81.9332 -3.17204 0.209843)
(83.9331 -2.95465 0.158258)
(85.6989 -2.87382 0.135894)
(93.1022 -3.72906 -0.09375)
(96.4117 -3.34329 -0.245559)
(96.535 -3.22308 -0.23601)
(96.665 -3.13381 -0.224638)
(96.7655 -3.06397 -0.212522)
(96.8442 -3.00508 -0.200751)
(96.911 -2.95351 -0.190089)
(96.97 -2.90746 -0.181164)
(97.0231 -2.86585 -0.174423)
(97.0721 -2.8281 -0.170046)
(97.1189 -2.79399 -0.167969)
(97.1653 -2.76347 -0.167946)
(97.2128 -2.73653 -0.169633)
(97.2624 -2.71314 -0.172662)
(97.3146 -2.69316 -0.176694)
(97.3698 -2.67637 -0.181468)
(97.428 -2.6624 -0.18684)
(97.489 -2.6507 -0.192763)
(97.5519 -2.64025 -0.199226)
(97.6303 -2.6287 -0.205874)
(100.001 0.0498288 0.000971677)
(100.004 0.103971 0.00192587)
(100.01 0.16808 0.00295717)
(100.019 0.248918 0.00408847)
(100.033 0.355522 0.00530796)
(100.054 0.501382 0.00654917)
(100.089 0.707787 0.00761501)
(100.152 1.01037 0.00801361)
(100.299 1.47101 0.00669045)
(100.351 1.88151 0.00618906)
(100.634 2.86527 0.00206511)
(102.475 5.38375 -0.00415277)
(111.197 3.84499 -0.0249496)
(109.026 -6.78433 0.0294349)
(102.728 -6.78785 -0.0352756)
(101.086 -4.96258 -0.0552304)
(100.662 -3.95897 -0.0554976)
(100.509 -3.41353 -0.0513134)
(100.439 -3.1022 -0.0483078)
(100.379 -2.92639 -0.0473519)
(100.285 -2.71802 -0.132819)
(100.295 -2.316 -0.262754)
(100.272 -2.21889 -0.264767)
(100.256 -2.16284 -0.264576)
(100.244 -2.13022 -0.263333)
(100.232 -2.10738 -0.261459)
(100.223 -2.08927 -0.259026)
(100.217 -2.07422 -0.256171)
(100.212 -2.06133 -0.253114)
(100.21 -2.05004 -0.250081)
(100.208 -2.04015 -0.247268)
(100.207 -2.03173 -0.244833)
(100.207 -2.02488 -0.242895)
(100.207 -2.01968 -0.241547)
(100.207 -2.01611 -0.240863)
(100.207 -2.01397 -0.24092)
(100.207 -2.01291 -0.241817)
(100.209 -2.01225 -0.243657)
(100.212 -2.01075 -0.246509)
(100.221 -2.00582 -0.250172)
(100.003 0.043719 0.000573048)
(100.012 0.0912699 0.00112686)
(100.031 0.14758 0.00167904)
(100.06 0.218454 0.002118)
(100.105 0.311285 0.00230747)
(100.172 0.436098 0.00201517)
(100.276 0.606903 0.000805888)
(100.444 0.842939 -0.00211014)
(100.763 1.16814 -0.0082007)
(100.99 1.40633 -0.0105057)
(101.848 1.85659 -0.0186221)
(103.465 1.74679 -0.0334857)
(105.237 -0.27317 -0.0513627)
(104.763 -2.84595 -0.0337728)
(102.962 -3.54419 -0.0534534)
(101.754 -3.31131 -0.0686934)
(101.136 -2.95314 -0.0774832)
(100.807 -2.65691 -0.0828659)
(100.616 -2.44039 -0.0865828)
(100.489 -2.28399 -0.0895419)
(100.396 -2.1633 -0.0929373)
(100.291 -1.89374 -0.251863)
(100.253 -1.86443 -0.253692)
(100.228 -1.84251 -0.254789)
(100.213 -1.82637 -0.255621)
(100.204 -1.81243 -0.256121)
(100.198 -1.79887 -0.256098)
(100.196 -1.7854 -0.255473)
(100.195 -1.77216 -0.254283)
(100.196 -1.75925 -0.25264)
(100.197 -1.74685 -0.250696)
(100.2 -1.73519 -0.248625)
(100.202 -1.72445 -0.246599)
(100.205 -1.71475 -0.244781)
(100.208 -1.70607 -0.24332)
(100.211 -1.69829 -0.242352)
(100.214 -1.69116 -0.242005)
(100.218 -1.68428 -0.242396)
(100.225 -1.67723 -0.243634)
(100.241 -1.66995 -0.245838)
(100.004 0.0339772 0.000315299)
(100.019 0.0709285 0.00063027)
(100.048 0.114529 0.000762226)
(100.093 0.168982 0.000600017)
(100.161 0.239204 -5.12085e-05)
(100.26 0.33089 -0.00154548)
(100.406 0.450137 -0.00444139)
(100.626 0.601166 -0.00963908)
(100.961 0.779855 -0.0186139)
(101.449 0.861484 -0.0332954)
(102.09 0.760325 -0.055556)
(102.765 0.229108 -0.0858763)
(103.121 -0.756918 -0.119399)
(102.872 -1.5802 -0.148953)
(102.231 -1.87943 -0.17747)
(101.604 -1.88129 -0.199533)
(101.16 -1.79537 -0.214268)
(100.871 -1.69329 -0.224101)
(100.678 -1.59877 -0.231005)
(100.541 -1.51707 -0.235948)
(100.445 -1.44739 -0.23956)
(100.38 -1.38578 -0.242337)
(100.334 -1.33606 -0.244503)
(100.301 -1.29493 -0.246325)
(100.278 -1.26164 -0.24787)
(100.262 -1.23467 -0.249087)
(100.25 -1.21224 -0.249918)
(100.242 -1.19315 -0.250334)
(100.236 -1.1767 -0.250344)
(100.232 -1.16244 -0.249996)
(100.23 -1.15005 -0.249375)
(100.228 -1.13935 -0.248586)
(100.227 -1.13023 -0.247748)
(100.227 -1.12255 -0.246979)
(100.227 -1.11615 -0.246404)
(100.227 -1.11085 -0.246135)
(100.228 -1.10643 -0.246285)
(100.23 -1.1026 -0.246959)
(100.235 -1.09914 -0.248261)
(100.243 -1.09608 -0.250295)
(100.005 0.0215333 0.000112517)
(100.024 0.0448424 0.000164921)
(100.059 0.0723277 1.40172e-05)
(100.115 0.106239 -0.000525164)
(100.197 0.149375 -0.00173537)
(100.314 0.204045 -0.00400261)
(100.478 0.271588 -0.00792324)
(100.706 0.34937 -0.0143303)
(101.017 0.424359 -0.0243773)
(101.418 0.457344 -0.0393734)
(101.883 0.392403 -0.0604049)
(102.314 0.155393 -0.087632)
(102.537 -0.263088 -0.118099)
(102.422 -0.688705 -0.147131)
(102.036 -0.929382 -0.172895)
(101.58 -0.987324 -0.193084)
(101.202 -0.959133 -0.207813)
(100.928 -0.907264 -0.218289)
(100.731 -0.85483 -0.225964)
(100.585 -0.808065 -0.231676)
(100.476 -0.769037 -0.235928)
(100.396 -0.74001 -0.239104)
(100.337 -0.720045 -0.241532)
(100.293 -0.706676 -0.243334)
(100.262 -0.697962 -0.244578)
(100.24 -0.69249 -0.245313)
(100.224 -0.688999 -0.245586)
(100.213 -0.6866 -0.245442)
(100.206 -0.684816 -0.244927)
(100.201 -0.68343 -0.244112)
(100.199 -0.682328 -0.243082)
(100.197 -0.681481 -0.241934)
(100.197 -0.68089 -0.24077)
(100.197 -0.680594 -0.239691)
(100.198 -0.68031 -0.238826)
(100.2 -0.680129 -0.238245)
(100.202 -0.679989 -0.238027)
(100.207 -0.679768 -0.238264)
(100.214 -0.679361 -0.239076)
(100.229 -0.678598 -0.240695)
(100.006 0.00737727 -7.10295e-07)
(100.026 0.0153217 -1.03798e-05)
(100.065 0.0247125 -0.000343545)
(100.126 0.0361593 -0.0010265)
(100.214 0.0506669 -0.00253411)
(100.338 0.0687511 -0.00518737)
(100.508 0.0903736 -0.00962126)
(100.736 0.114016 -0.0165493)
(101.028 0.134552 -0.0270882)
(101.378 0.139401 -0.0419678)
(101.752 0.108732 -0.0617732)
(102.075 0.022145 -0.086205)
(102.243 -0.1167 -0.113417)
(102.178 -0.260231 -0.140413)
(101.907 -0.351377 -0.164034)
(101.547 -0.379922 -0.183257)
(101.212 -0.374812 -0.198057)
(100.948 -0.360294 -0.208942)
(100.75 -0.345291 -0.217102)
(100.6 -0.331877 -0.223296)
(100.486 -0.320566 -0.228015)
(100.401 -0.311609 -0.231568)
(100.339 -0.304254 -0.23419)
(100.293 -0.29774 -0.235971)
(100.261 -0.291445 -0.237148)
(100.238 -0.285144 -0.237816)
(100.222 -0.278741 -0.238032)
(100.211 -0.272221 -0.237856)
(100.203 -0.26566 -0.237354)
(100.198 -0.259171 -0.236602)
(100.195 -0.252871 -0.235686)
(100.193 -0.246859 -0.234693)
(100.192 -0.241229 -0.233705)
(100.191 -0.236083 -0.232761)
(100.192 -0.231248 -0.232154)
(100.193 -0.226856 -0.231833)
(100.195 -0.222934 -0.23184)
(100.199 -0.219478 -0.232263)
(100.205 -0.216582 -0.233221)
(100.215 -0.214721 -0.234972)
(99.9937 0.00544848 0.00762675)
(99.972 0.0111145 0.0157771)
(99.9317 0.0171123 0.0251405)
(99.8718 0.0234551 0.0368541)
(99.7905 0.0298497 0.0520236)
(99.6859 0.03549 0.0719231)
(99.5569 0.0386768 0.0976802)
(99.4061 0.0364577 0.130757)
(99.2422 0.024183 0.172464)
(99.0845 -0.00441108 0.223032)
(98.9653 -0.0549743 0.281378)
(98.9247 -0.125687 0.344495)
(98.9887 -0.197926 0.40778)
(99.1488 -0.2525 0.465771)
(99.3626 -0.27912 0.514634)
(99.5823 -0.286984 0.55419)
(99.78 -0.284747 0.585797)
(99.947 -0.277403 0.611496)
(100.083 -0.26827 0.632603)
(100.19 -0.259706 0.650024)
(100.273 -0.25263 0.664042)
(100.336 -0.247063 0.675326)
(100.384 -0.242711 0.684578)
(100.421 -0.23967 0.691759)
(100.45 -0.237726 0.697049)
(100.474 -0.23654 0.700854)
(100.493 -0.235958 0.703115)
(100.509 -0.235834 0.704113)
(100.522 -0.235967 0.704296)
(100.533 -0.236206 0.703889)
(100.542 -0.236465 0.70304)
(100.55 -0.236715 0.701859)
(100.556 -0.236936 0.700682)
(100.561 -0.237145 0.699639)
(100.565 -0.237384 0.698741)
(100.57 -0.237724 0.697939)
(100.574 -0.23823 0.697094)
(100.579 -0.238936 0.696268)
(100.586 -0.23991 0.695343)
(100.598 -0.241315 0.694189)
(99.9938 0.0162103 0.00745985)
(99.9726 0.0331229 0.0153786)
(99.933 0.0512158 0.0246404)
(99.8735 0.0706422 0.0362564)
(99.7916 0.0907343 0.051335)
(99.684 0.109385 0.0711948)
(99.5474 0.121907 0.0972898)
(99.3815 0.119603 0.131282)
(99.1918 0.0880249 0.174741)
(98.9963 0.00664835 0.228517)
(98.8351 -0.14157 0.291925)
(98.7744 -0.350491 0.361819)
(98.8579 -0.570892 0.432151)
(99.0643 -0.731264 0.495814)
(99.3238 -0.80993 0.547713)
(99.5727 -0.836803 0.588272)
(99.7862 -0.833556 0.620141)
(99.9607 -0.814502 0.645849)
(100.098 -0.790039 0.666806)
(100.204 -0.766164 0.683723)
(100.284 -0.745862 0.697156)
(100.343 -0.730462 0.708085)
(100.388 -0.719383 0.716944)
(100.421 -0.711712 0.72368)
(100.446 -0.70555 0.728432)
(100.466 -0.69994 0.731571)
(100.483 -0.695051 0.733419)
(100.496 -0.69106 0.734302)
(100.507 -0.687817 0.734525)
(100.516 -0.685153 0.73431)
(100.524 -0.682986 0.733828)
(100.531 -0.681279 0.733228)
(100.537 -0.679983 0.732671)
(100.542 -0.679133 0.732239)
(100.546 -0.678812 0.731927)
(100.55 -0.679119 0.731672)
(100.555 -0.680189 0.731361)
(100.56 -0.682077 0.730883)
(100.567 -0.684795 0.730097)
(100.578 -0.688282 0.728922)
(99.9941 0.0265464 0.00709608)
(99.974 0.0544206 0.014658)
(99.9361 0.0847559 0.0235833)
(99.8781 0.11823 0.034848)
(99.7962 0.154467 0.0495932)
(99.6845 0.191123 0.0692564)
(99.5353 0.221993 0.0955946)
(99.3412 0.233669 0.130722)
(99.0992 0.19998 0.176982)
(98.8255 0.0733061 0.236447)
(98.5779 -0.253709 0.309708)
(98.4669 -0.708298 0.392293)
(98.5876 -1.12086 0.474431)
(98.8895 -1.35795 0.546908)
(99.2322 -1.45276 0.602476)
(99.5317 -1.47663 0.643361)
(99.774 -1.4553 0.674615)
(99.9623 -1.41364 0.699729)
(100.104 -1.36779 0.720098)
(100.208 -1.32452 0.736214)
(100.282 -1.2882 0.748403)
(100.335 -1.25733 0.758306)
(100.373 -1.24045 0.76641)
(100.402 -1.23483 0.772426)
(100.424 -1.23268 0.776294)
(100.441 -1.23074 0.778303)
(100.454 -1.22888 0.778859)
(100.462 -1.22727 0.778354)
(100.469 -1.22579 0.777148)
(100.474 -1.22434 0.77557)
(100.478 -1.22288 0.773896)
(100.481 -1.22148 0.772352)
(100.484 -1.2202 0.771098)
(100.485 -1.21915 0.770203)
(100.487 -1.21851 0.769636)
(100.488 -1.2185 0.76927)
(100.489 -1.21936 0.768899)
(100.491 -1.22128 0.768272)
(100.494 -1.22429 0.767179)
(100.501 -1.22791 0.765657)
(99.9948 0.0359923 0.00653034)
(99.9767 0.0741109 0.0135352)
(99.9423 0.11647 0.0218488)
(99.8885 0.164874 0.0324078)
(99.81 0.220335 0.0463578)
(99.6975 0.282237 0.0652093)
(99.5368 0.346367 0.0909759)
(99.3075 0.400361 0.12628)
(98.9804 0.41497 0.174542)
(98.4914 0.218578 0.240099)
(98.2333 0.0363301 0.273243)
(97.8887 -0.624603 0.349896)
(97.954 -1.42751 0.43097)
(98.432 -1.95134 0.505104)
(98.9342 -2.10586 0.560848)
(99.3331 -2.1355 0.598461)
(99.6539 -2.09144 0.62516)
(99.8924 -2.01293 0.646119)
(100.063 -1.9312 0.663332)
(100.184 -1.86101 0.677582)
(100.33 -1.89242 0.811893)
(100.361 -1.82631 0.820981)
(100.367 -1.7808 0.826215)
(100.368 -1.75548 0.828958)
(100.371 -1.74028 0.83028)
(100.369 -1.7316 0.830473)
(100.363 -1.72804 0.829628)
(100.352 -1.72811 0.827929)
(100.339 -1.73047 0.825638)
(100.325 -1.73419 0.823033)
(100.308 -1.7386 0.820399)
(100.291 -1.74322 0.817987)
(100.273 -1.74771 0.815983)
(100.254 -1.7519 0.814461)
(100.234 -1.75577 0.813367)
(100.214 -1.75951 0.812505)
(100.192 -1.76339 0.811534)
(100.171 -1.76785 0.810002)
(100.151 -1.77313 0.807432)
(100.13 -1.77851 0.803524)
(99.9958 0.0438261 0.00574487)
(99.9812 0.090664 0.0119644)
(99.953 0.143865 0.0193563)
(99.9079 0.206892 0.0287492)
(99.8397 0.283254 0.0411962)
(99.7371 0.376416 0.0581309)
(99.581 0.488999 0.0815601)
(99.3391 0.619621 0.11422)
(98.9073 0.754937 0.159811)
(98.565 0.758178 0.185752)
(97.7581 0.369152 0.252026)
(96.9561 -0.693576 0.337202)
(97.0481 -2.34408 0.433914)
(98.1698 -2.96378 0.521302)
(98.9001 -2.99827 0.580318)
(99.3841 -2.94994 0.612312)
(99.7549 -2.81829 0.632904)
(99.9967 -2.6708 0.649794)
(100.15 -2.54014 0.664635)
(100.242 -2.43936 0.678103)
(100.299 -2.38598 0.690558)
(100.212 -2.5279 0.817934)
(100.072 -2.5204 0.814667)
(99.9369 -2.49824 0.805316)
(99.8147 -2.47203 0.793495)
(99.6975 -2.45035 0.780191)
(99.5838 -2.43447 0.765543)
(99.4747 -2.42317 0.749894)
(99.3712 -2.41533 0.73383)
(99.2733 -2.41005 0.71803)
(99.1813 -2.40648 0.70317)
(99.095 -2.40383 0.689829)
(99.0142 -2.40144 0.678386)
(98.9387 -2.39885 0.668979)
(98.8681 -2.39582 0.661471)
(98.802 -2.39235 0.655461)
(98.7401 -2.38877 0.650264)
(98.6827 -2.38579 0.64497)
(98.6314 -2.38481 0.638516)
(98.5823 -2.38857 0.630009)
(99.9972 0.0491559 0.00488168)
(99.9876 0.102099 0.010064)
(99.9688 0.163425 0.0161827)
(99.9379 0.238366 0.0238868)
(99.8896 0.333379 0.0339818)
(99.8138 0.45736 0.0475742)
(99.6916 0.623469 0.0662028)
(99.4868 0.851438 0.0919706)
(99.0769 1.172 0.127565)
(98.6714 1.33214 0.149019)
(97.7235 1.47271 0.178707)
(95.6204 0.705416 0.233205)
(94.4033 -3.43996 0.327499)
(98.2133 -4.74404 0.441509)
(98.7648 -3.93926 0.557426)
(99.388 -3.83517 0.613884)
(99.8204 -3.54177 0.621635)
(100.006 -3.24752 0.607655)
(100.044 -3.03598 0.588303)
(99.9731 -2.88061 0.577404)
(98.9135 -2.65957 0.602688)
(95.2407 -2.39353 0.410313)
(95.2578 -2.49351 0.411164)
(95.2984 -2.5497 0.406321)
(95.3338 -2.58447 0.398614)
(95.3662 -2.6121 0.389038)
(95.4012 -2.63648 0.377873)
(95.4406 -2.65838 0.365466)
(95.4838 -2.67817 0.352313)
(95.5302 -2.69588 0.338994)
(95.5792 -2.71125 0.326113)
(95.6305 -2.72384 0.314233)
(95.6833 -2.73326 0.303719)
(95.7371 -2.73928 0.294739)
(95.7913 -2.74185 0.287209)
(95.8453 -2.74115 0.280763)
(95.8987 -2.73766 0.274708)
(95.9514 -2.73219 0.267994)
(96.0025 -2.7263 0.259094)
(96.0626 -2.7231 0.245718)
(99.999 0.051137 0.00377922)
(99.9956 0.106501 0.00780099)
(99.9888 0.171515 0.012435)
(99.9771 0.252634 0.0180553)
(99.958 0.358422 0.0250936)
(99.9269 0.501908 0.0340797)
(99.8755 0.704388 0.0456197)
(99.7893 1.00342 0.0601904)
(99.6204 1.47093 0.0776304)
(99.3557 1.86625 0.0880885)
(98.643 2.79508 0.0985416)
(95.5187 5.79488 0.115081)
(77.1453 -4.29993 0.176964)
(62.3467 -6.95274 -0.905493)
(72.4036 -3.85022 -0.131637)
(74.59 -2.74429 -0.145002)
(77.4252 -2.40236 -0.270584)
(80.6646 -2.3865 -0.423443)
(83.7758 -2.54941 -0.534374)
(91.7462 -3.40959 -0.554071)
(96.1272 -3.3227 -0.629371)
(96.2847 -3.22527 -0.621675)
(96.4463 -3.15648 -0.609128)
(96.5797 -3.10627 -0.594909)
(96.697 -3.06694 -0.580281)
(96.8097 -3.03491 -0.565568)
(96.9213 -3.00814 -0.550965)
(97.0312 -2.98512 -0.536703)
(97.1379 -2.96468 -0.52302)
(97.2402 -2.94595 -0.51014)
(97.3369 -2.92832 -0.498243)
(97.427 -2.91136 -0.487443)
(97.5098 -2.89482 -0.477837)
(97.5851 -2.87855 -0.469511)
(97.6532 -2.86247 -0.462616)
(97.7146 -2.84647 -0.457492)
(97.7701 -2.83033 -0.454706)
(97.8207 -2.81336 -0.455163)
(97.8795 -2.79359 -0.459901)
(100.001 0.0490997 0.0026997)
(100.004 0.102444 0.00550933)
(100.01 0.16554 0.00856358)
(100.02 0.244933 0.0119339)
(100.034 0.349392 0.0156296)
(100.055 0.492012 0.019531)
(100.09 0.69352 0.0231772)
(100.151 0.98873 0.025324)
(100.293 1.43837 0.0230502)
(100.342 1.84242 0.020349)
(100.617 2.81285 0.00716538)
(102.439 5.30205 -0.033631)
(111.013 3.85747 -0.0952867)
(108.914 -6.63304 -0.300148)
(102.678 -6.71693 -0.44424)
(101.047 -4.86816 -0.512728)
(100.623 -3.84681 -0.534597)
(100.476 -3.30022 -0.533902)
(100.411 -3.00123 -0.527277)
(100.358 -2.84561 -0.52239)
(100.254 -2.69967 -0.587295)
(100.281 -2.33841 -0.72704)
(100.27 -2.24151 -0.727033)
(100.263 -2.18573 -0.723933)
(100.258 -2.15465 -0.72081)
(100.253 -2.13498 -0.718284)
(100.249 -2.12172 -0.715948)
(100.246 -2.11296 -0.713465)
(100.243 -2.10733 -0.710693)
(100.24 -2.1037 -0.707609)
(100.236 -2.10131 -0.704289)
(100.232 -2.09973 -0.700884)
(100.227 -2.09873 -0.697587)
(100.222 -2.09813 -0.694598)
(100.217 -2.09783 -0.692183)
(100.212 -2.09763 -0.690644)
(100.208 -2.09724 -0.690382)
(100.205 -2.09608 -0.691888)
(100.205 -2.09309 -0.695696)
(100.213 -2.08624 -0.701948)
(100.003 0.0430518 0.00164387)
(100.012 0.0899644 0.00333029)
(100.031 0.145374 0.00490804)
(100.06 0.214967 0.00617246)
(100.105 0.30593 0.00676931)
(100.171 0.427984 0.00605202)
(100.273 0.594792 0.00281229)
(100.437 0.825148 -0.00517911)
(100.749 1.14242 -0.0221116)
(100.973 1.37637 -0.0338406)
(101.815 1.81861 -0.0748385)
(103.409 1.70474 -0.152467)
(105.151 -0.288196 -0.2652)
(104.677 -2.82363 -0.387428)
(102.907 -3.52942 -0.480379)
(101.717 -3.29854 -0.539209)
(101.112 -2.94618 -0.573522)
(100.792 -2.65627 -0.592822)
(100.606 -2.445 -0.603843)
(100.482 -2.29302 -0.610439)
(100.39 -2.17239 -0.614847)
(100.291 -1.88768 -0.761752)
(100.256 -1.85653 -0.761512)
(100.232 -1.8337 -0.759493)
(100.218 -1.81689 -0.756758)
(100.21 -1.80244 -0.753639)
(100.205 -1.78875 -0.750202)
(100.203 -1.77565 -0.74651)
(100.203 -1.76323 -0.742645)
(100.204 -1.75151 -0.738692)
(100.206 -1.74054 -0.734748)
(100.208 -1.73038 -0.730915)
(100.21 -1.7211 -0.727314)
(100.212 -1.71269 -0.724059)
(100.214 -1.70503 -0.721322)
(100.216 -1.69791 -0.719315)
(100.218 -1.69102 -0.718319)
(100.221 -1.68387 -0.718689)
(100.227 -1.67608 -0.720828)
(100.241 -1.66786 -0.725093)
(100.004 0.0335084 0.000821429)
(100.019 0.0699498 0.00157886)
(100.048 0.112849 0.00194101)
(100.093 0.16635 0.0014976)
(100.16 0.235155 -0.000371324)
(100.257 0.32483 -0.0046517)
(100.401 0.441297 -0.0129322)
(100.616 0.588632 -0.0278008)
(100.943 0.762699 -0.0534963)
(101.42 0.842851 -0.0961008)
(102.045 0.745162 -0.161682)
(102.705 0.227162 -0.253306)
(103.05 -0.73254 -0.361369)
(102.805 -1.53932 -0.472595)
(102.179 -1.83554 -0.562914)
(101.571 -1.83797 -0.625367)
(101.142 -1.75436 -0.665657)
(100.865 -1.65542 -0.691874)
(100.678 -1.56402 -0.7096)
(100.545 -1.48505 -0.721587)
(100.451 -1.41731 -0.729326)
(100.386 -1.35609 -0.733612)
(100.339 -1.30704 -0.73658)
(100.305 -1.26654 -0.738617)
(100.281 -1.23346 -0.739575)
(100.263 -1.20645 -0.739539)
(100.25 -1.18401 -0.738736)
(100.241 -1.1651 -0.737354)
(100.234 -1.14906 -0.735534)
(100.23 -1.1354 -0.733413)
(100.227 -1.12377 -0.731141)
(100.226 -1.11389 -0.728877)
(100.226 -1.10558 -0.726787)
(100.226 -1.09865 -0.725027)
(100.226 -1.0929 -0.723783)
(100.227 -1.0881 -0.723244)
(100.229 -1.08396 -0.723624)
(100.232 -1.08016 -0.725161)
(100.236 -1.0765 -0.728097)
(100.244 -1.07312 -0.732548)
(100.005 0.0212152 0.000234111)
(100.024 0.0442115 0.000326987)
(100.059 0.07126 -0.000159763)
(100.115 0.104665 -0.00176132)
(100.196 0.146924 -0.00530024)
(100.311 0.200429 -0.0118797)
(100.472 0.266464 -0.0231884)
(100.695 0.3425 -0.0416719)
(100.999 0.415748 -0.070688)
(101.39 0.448381 -0.114256)
(101.843 0.385788 -0.175912)
(102.263 0.154966 -0.256282)
(102.481 -0.254519 -0.348904)
(102.371 -0.670338 -0.441303)
(101.995 -0.903841 -0.520746)
(101.554 -0.959443 -0.580212)
(101.19 -0.931542 -0.621719)
(100.926 -0.881039 -0.650669)
(100.736 -0.830226 -0.671421)
(100.595 -0.785109 -0.686392)
(100.489 -0.747595 -0.69698)
(100.409 -0.71971 -0.704262)
(100.348 -0.700529 -0.709427)
(100.303 -0.687415 -0.712811)
(100.269 -0.678604 -0.714479)
(100.244 -0.672819 -0.714629)
(100.226 -0.668923 -0.713558)
(100.212 -0.666111 -0.711546)
(100.203 -0.663971 -0.708834)
(100.197 -0.662313 -0.70565)
(100.193 -0.661028 -0.702218)
(100.192 -0.660077 -0.698753)
(100.192 -0.659422 -0.695459)
(100.193 -0.659036 -0.692521)
(100.195 -0.658809 -0.690166)
(100.198 -0.658672 -0.688537)
(100.202 -0.658494 -0.6878)
(100.208 -0.658147 -0.688161)
(100.216 -0.657537 -0.689866)
(100.231 -0.656663 -0.693247)
(100.006 0.00726308 -7.553e-05)
(100.026 0.0151461 -0.000279262)
(100.065 0.0243503 -0.00122886)
(100.125 0.0356435 -0.00335105)
(100.213 0.049806 -0.00774257)
(100.335 0.0674723 -0.015392)
(100.502 0.088608 -0.0280005)
(100.725 0.111748 -0.0478426)
(101.01 0.131793 -0.0779229)
(101.352 0.136748 -0.120921)
(101.718 0.107326 -0.178846)
(102.033 0.0236436 -0.251039)
(102.198 -0.111088 -0.332382)
(102.138 -0.250698 -0.413679)
(101.876 -0.338845 -0.4854)
(101.529 -0.366517 -0.542285)
(101.207 -0.361637 -0.584178)
(100.953 -0.347619 -0.614405)
(100.761 -0.33319 -0.636611)
(100.615 -0.320341 -0.65305)
(100.503 -0.30957 -0.6651)
(100.418 -0.301049 -0.673725)
(100.354 -0.293936 -0.679744)
(100.305 -0.287439 -0.683634)
(100.269 -0.281105 -0.685838)
(100.242 -0.274754 -0.686576)
(100.222 -0.268298 -0.686064)
(100.208 -0.261745 -0.684558)
(100.198 -0.255185 -0.682312)
(100.191 -0.248743 -0.679575)
(100.186 -0.242536 -0.676588)
(100.184 -0.236656 -0.673577)
(100.184 -0.231178 -0.670745)
(100.185 -0.226147 -0.66824)
(100.187 -0.221552 -0.666485)
(100.19 -0.217407 -0.665482)
(100.194 -0.213701 -0.665343)
(100.2 -0.210427 -0.666254)
(100.207 -0.20768 -0.668433)
(100.218 -0.205958 -0.672172)
(99.994 0.00533225 0.0122246)
(99.9736 0.0108806 0.0252035)
(99.9355 0.0167856 0.0403473)
(99.8788 0.0230435 0.0592265)
(99.8022 0.0293762 0.0835467)
(99.7037 0.0350366 0.115316)
(99.5825 0.0384583 0.156676)
(99.4411 0.0368601 0.209966)
(99.2878 0.0258553 0.277244)
(99.1406 -0.000424635 0.359306)
(99.0297 -0.0474916 0.454713)
(98.9923 -0.113144 0.558649)
(99.0524 -0.180601 0.662834)
(99.2023 -0.231455 0.758565)
(99.4021 -0.256106 0.839283)
(99.6072 -0.263213 0.904191)
(99.7921 -0.260676 0.955679)
(99.9486 -0.253184 0.996887)
(100.076 -0.244022 1.03014)
(100.178 -0.235629 1.057)
(100.257 -0.228807 1.07858)
(100.319 -0.223411 1.09609)
(100.368 -0.219286 1.11069)
(100.406 -0.216662 1.12292)
(100.437 -0.21532 1.13292)
(100.464 -0.21476 1.14075)
(100.486 -0.214629 1.14652)
(100.505 -0.214698 1.15052)
(100.52 -0.214769 1.15312)
(100.533 -0.214695 1.15461)
(100.543 -0.214411 1.15526)
(100.552 -0.213929 1.1553)
(100.558 -0.213301 1.15501)
(100.563 -0.212606 1.15455)
(100.566 -0.211934 1.15401)
(100.568 -0.211407 1.1534)
(100.57 -0.211139 1.15266)
(100.573 -0.21122 1.15167)
(100.577 -0.211749 1.15019)
(100.586 -0.2129 1.14781)
(99.9942 0.0158547 0.0119394)
(99.9742 0.0324184 0.0246414)
(99.9368 0.0501894 0.0395405)
(99.8806 0.0692954 0.0582004)
(99.8036 0.0891121 0.0823803)
(99.7024 0.107684 0.114234)
(99.5744 0.120643 0.156231)
(99.419 0.119785 0.211193)
(99.2417 0.0914573 0.281893)
(99.059 0.0162887 0.370165)
(98.9091 -0.121963 0.475241)