/*--------------------------------*- C++ -*----------------------------------*\
| =========                 |                                                 |
| \\      /  F ield         | OpenFOAM: The Open Source CFD Toolbox           |
|  \\    /   O peration     | Version:  2306                                  |
|   \\  /    A nd           | Website:  www.openfoam.com                      |
|    \\/     M anipulation  |                                                 |
\*---------------------------------------------------------------------------*/
FoamFile
{
    version     2.0;
    format      ascii;
    arch        "LSB;label=32;scalar=64";
    class       volVectorField;
    location    "1";
    object      Force;
}
// * * * * * * * * * * * * * * * * * * * * * * * * * * * * * * * * * * * * * //

dimensions      [1 1 -2 0 0 0 0];

internalField   uniform (0 0 0);

boundaryField
{
    walls
    {
        type            calculated;
        value           uniform (0 0 0);
    }
    inlet
    {
        type            calculated;
        value           uniform (0 0 0);
    }
    outlet
    {
        type            calculated;
        value           uniform (0 0 0);
    }
    NASA
    {
        type            calculated;
        value           nonuniform List<vector> 
14179
(
(-0.014288 -0.131435 4.50753e-06)
(-0.0127431 -0.105378 3.02492e-06)
(-0.0663016 -0.536365 0.000436129)
(-0.10073 -0.810421 0.00143561)
(-0.0646771 -0.523717 0.000225551)
(-0.109545 -0.881235 0.00161083)
(0.208024 0.903355 -0.00017455)
(0.0916401 0.459863 -3.88448e-05)
(0.654783 3.21081 0.00425359)
(0.0959033 0.481301 -4.11082e-05)
(0.00044926 -0.00167265 1.8562e-08)
(-0.0178125 -0.14575 0.000284317)
(0.130442 0.651579 -0.00105893)
(-0.0355148 -0.323133 0.000750386)
(0.0618391 0.308681 -0.000481443)
(1.37511 0.927595 0.00281099)
(1.39196 0.922425 -0.000264418)
(0.0231853 0.130202 -3.22901e-05)
(0.154386 0.915908 -7.96777e-05)
(1.28926 0.854631 -0.00114043)
(-0.0168177 -0.235381 -1.13805e-05)
(-0.020929 -0.194661 -0.000130189)
(-0.0192433 -0.267249 -0.000242821)
(-0.00843924 -0.0615094 1.78529e-06)
(-0.0129068 -0.106792 1.37348e-05)
(-0.00912404 -0.0664988 1.27555e-05)
(-0.0129847 -0.10699 0.000257505)
(-0.0151434 -0.10857 0.000270407)
(-0.013374 -0.122202 0.00029531)
(-0.015729 -0.215988 0.00357622)
(0.0470299 0.20538 2.59774e-05)
(0.0529685 0.249754 4.95437e-06)
(0.0569488 0.268525 -6.96213e-05)
(0.0463888 0.202071 -1.83335e-05)
(0.0628591 0.230457 6.08725e-06)
(0.0646067 0.236917 1.42401e-05)
(0.0312671 0.113376 3.541e-06)
(0.033579 0.121784 9.71321e-06)
(-0.001774 -0.0086042 0.00013698)
(-0.0131421 -0.0639571 0.000620942)
(0.16843 0.615184 -0.000674003)
(0.0984073 0.35483 -3.11063e-05)
(0.0970483 0.487116 -4.45969e-05)
(-0.00577745 -0.0406654 2.6564e-06)
(-0.00527104 -0.0370953 -3.89626e-06)
(0.150306 0.754927 -6.27759e-05)
(-0.00977176 -0.0676438 0.00020308)
(0.0969169 0.483909 -0.000294324)
(0.0900485 0.450021 -0.000389941)
(0.108035 0.441394 -0.000334281)
(0.0847576 0.315075 -1.75476e-05)
(0.0843819 0.313669 -3.44604e-05)
(-0.0684282 1.67105 -0.000147074)
(1.38671 0.921934 -0.00072563)
(-0.0608947 1.49317 0.00010175)
(-0.00297455 1.48522 -0.000132212)
(0.0767568 1.16103 4.70513e-05)
(0.0720833 1.08648 -0.000152226)
(-0.00332095 1.50571 -1.44648e-05)
(0.0961012 0.377495 -1.26839e-05)
(0.157803 0.935723 -7.35019e-05)
(0.00814328 0.029663 5.25373e-05)
(-0.0229656 0.569705 -0.000418561)
(0.932623 0.636425 0.0781921)
(-0.000762174 0.53534 -0.000688676)
(0.0271357 0.41248 -0.000406402)
(0.1276 0.746978 0.00742189)
(-0.0144158 -0.144273 6.95215e-06)
(-0.0142301 -0.130985 7.99403e-06)
(-0.0990943 -0.797371 0.00140972)
(-0.0112158 -0.0889859 3.21161e-06)
(-0.0127199 -0.105194 6.22286e-06)
(1.33342 0.882875 -0.0018303)
(1.28665 0.852179 -0.00155182)
(0.345797 2.05066 -0.00411224)
(0.260405 1.5388 -0.00270376)
(-0.110927 -0.893542 0.000149126)
(-0.0557291 -0.34699 0.000667758)
(-0.0548911 -0.343985 0.00066257)
(-0.0415529 -0.243928 0.000493096)
(0.156367 0.674774 -0.0012889)
(0.174976 0.756662 -0.00140903)
(0.763218 1.31038 -5.53447e-05)
(0.763722 1.30925 -0.000329177)
(0.0916373 0.459866 -3.22073e-05)
(0.086694 0.416352 -2.34555e-05)
(-7.5629e-05 -0.00195231 -1.06843e-06)
(0.00165903 0.0085942 -1.65842e-07)
(0.00169186 0.00878106 -2.01e-06)
(-6.75353e-05 -0.00189564 1.31508e-07)
(0.0970517 0.48719 -2.06931e-05)
(0.0918221 0.47347 -2.89583e-05)
(-0.0200715 -0.164114 0.000331473)
(-0.013428 -0.0962404 0.000212599)
(-0.0202453 -0.144631 0.000291276)
(-0.0122444 -0.0844554 0.00019987)
(-0.0179848 -0.123401 0.000206303)
(0.0854746 0.426572 -0.000826596)
(-0.0200848 -0.182806 0.000352343)
(-0.02472 -0.340106 0.000919514)
(-0.0209282 -0.294163 -2.23204e-05)
(0.0801603 0.400419 -0.000747244)
(1.37269 0.921878 -0.00268802)
(0.0947477 0.558475 -3.57407e-05)
(0.101283 0.56634 -1.54297e-05)
(0.103927 0.580939 -3.56204e-05)
(0.186056 1.29518 -0.000108795)
(0.10307 0.611306 -3.34562e-05)
(0.156368 0.92757 -4.97149e-05)
(0.0183122 0.0172792 1.89393e-05)
(0.347719 -0.128134 0.00349002)
(0.36565 -0.144963 0.0017248)
(0.0137697 0.0132173 -3.47578e-05)
(-0.0060964 -0.0262858 0.000126872)
(0.0226752 0.0836297 -9.90409e-05)
(0.00321934 0.0112861 5.31862e-05)
(0.0230176 0.0927127 -1.15614e-05)
(-0.00899258 -0.0401903 9.72912e-05)
(-0.00117283 -0.00722817 9.4943e-05)
(0.00492729 0.0206772 1.1723e-05)
(-0.0178209 -0.0862349 0.000169639)
(-0.00109907 0.732171 -0.00119384)
(0.0407234 0.608668 -0.0010537)
(-0.00159893 0.980581 -0.00164973)
(0.0318402 0.482401 -0.00115612)
(-0.0348219 0.869634 -0.00162387)
(1.11392 0.749378 -0.00133052)
(-0.0471843 1.16599 -0.00193804)
(0.109745 0.649582 -0.00214564)
(0.155988 0.610926 -0.00135467)
(0.117452 0.459395 -0.000773021)
(0.108134 0.394627 -0.000641161)
(0.152691 0.557922 -0.000924983)
(0.0628726 0.226886 -0.000366086)
(0.0857774 0.310064 -0.00058098)
(-0.0129996 -0.146499 -1.15618e-06)
(-0.0167027 -0.23346 1.02575e-05)
(-0.0102674 -0.0791317 3.03541e-06)
(-0.00829319 -0.0604485 2.73179e-06)
(0.000393034 0.000670025 0.539917)
(-0.0130025 -0.102349 0.000251327)
(0.000365582 0.000641643 0.513407)
(-0.0144564 -0.110192 0.000278471)
(0.000663145 0.000876103 0.584196)
(-0.013106 -0.1309 0.000383632)
(0.000896888 0.00133092 0.585187)
(-0.012218 -0.140761 0.00120554)
(0.0527559 0.248741 -2.41677e-05)
(0.0393189 0.178822 -7.00532e-06)
(0.0396349 0.18028 -1.76257e-05)
(0.0466138 0.203012 -1.38286e-05)
(0.0458815 0.202097 -9.25593e-06)
(0.046122 0.203167 -1.79698e-05)
(0.0628959 0.230572 1.1195e-05)
(0.0241887 0.12031 -1.16593e-05)
(0.0216479 0.109838 -1.04765e-05)
(0.031845 0.115466 9.31411e-06)
(0.0266498 0.0937068 2.62961e-06)
(-0.00626355 -0.028713 0.000220335)
(-0.00536871 -0.025606 0.000248997)
(0.000306069 0.000500678 0.323612)
(0.000310217 0.000471443 0.316838)
(0.00030231 0.000460837 0.313167)
(0.000295918 0.000476832 0.359472)
(0.0926981 0.315913 0.000214967)
(0.158442 0.554082 0.00364788)
(-3.03815e-05 0.000543006 0.338108)
(0.000236021 9.26828e-05 0.305432)
(0.000120884 0.00017713 0.108508)
(0.0810551 0.284582 -1.73417e-07)
(0.285738 0.663791 -3.01271e-06)
(0.168278 0.593257 6.07745e-05)
(0.166561 0.58724 -2.85445e-05)
(0.0820694 0.383132 -1.37677e-05)
(0.0834636 0.38978 -1.83672e-05)
(0.13897 0.663569 -2.95768e-05)
(0.0813605 0.362241 -1.72998e-05)
(0.0837433 0.379938 -9.98947e-06)
(0.0860863 0.390601 -1.78195e-05)
(0.0802781 0.357427 -4.64806e-06)
(-0.00443382 -0.0313689 3.76054e-07)
(-0.00570756 -0.0401771 6.87755e-07)
(0.149663 0.792663 -3.06204e-05)
(0.272822 0.470567 0.0113138)
(0.000729802 0.00290908 0.875594)
(0.00035212 0.00136292 0.417645)
(0.049868 0.145089 6.64768e-05)
(-0.0118079 -0.0736899 0.000269091)
(-0.0118779 -0.0750059 0.00041452)
(0.000756236 0.00143728 0.686406)
(0.0002398 0.000126257 0.312611)
(0.0960851 0.493286 0.000679863)
(0.000396395 6.03899e-05 0.376697)
(0.139842 0.735156 0.00492908)
(0.000440799 0.00065422 0.350003)
(0.000295515 0.000489987 0.33262)
(-0.000457891 0.000158992 0.356088)
(6.92284e-05 0.000276517 0.112915)
(0.0802757 0.383593 -0.000360157)
(0.102866 0.477988 0.000588341)
(0.000385595 0.00010562 0.207009)
(9.48857e-05 0.000377914 0.108205)
(0.168863 0.709781 0.00146399)
(0.084773 0.315124 -1.98506e-05)
(0.0807183 0.308994 -2.23608e-05)
(0.0962323 0.392299 -3.21493e-05)
(0.0675463 0.272053 -8.95962e-06)
(-0.856699 2.73886 -0.0210238)
(-0.0645461 1.58095 -4.35249e-05)
(-0.176146 1.64652 0.000720434)
(0.0778523 1.17483 -8.3271e-05)
(0.0623708 1.33414 -5.28175e-05)
(-0.00306075 1.50086 -2.59167e-05)
(0.0387539 1.46398 -4.30161e-05)
(0.106093 1.16388 -3.92123e-05)
(0.141873 1.83193 -7.2695e-05)
(0.144083 1.85891 -6.81234e-05)
(0.104859 1.15139 -6.73785e-05)
(0.115613 1.18038 -5.86758e-05)
(0.119314 1.11011 -9.46834e-06)
(0.120847 1.12415 -8.44186e-05)
(0.114119 1.16538 -1.02707e-05)
(0.0678883 0.281237 -3.65181e-06)
(0.0617931 0.245138 1.01277e-06)
(0.0971923 0.381806 1.22555e-05)
(0.116276 0.78761 -8.25558e-05)
(0.112787 0.710261 -3.86587e-05)
(-0.000548087 -4.10223e-05 0.575038)
(0.000656589 0.00222969 0.906843)
(0.00158301 0.00543249 0.000129059)
(0.000126144 0.00266353 0.749987)
(0.00277051 0.00971849 0.000124911)
(0.000295344 0.00993378 0.275514)
(-0.0611504 0.586598 -0.00100267)
(0.00725218 -0.00326791 1.75696)
(0.00026586 0.000438246 0.305414)
(0.0141975 0.519739 -0.000725212)
(0.000659911 1.2026e-05 0.246305)
(0.0233374 0.488868 -0.000548778)
(0.0616087 0.530256 -0.000720991)
(0.0613296 0.520301 -0.000680965)
(0.000298202 0.000361566 0.245723)
(0.000323504 0.000394814 0.270321)
(0.0577656 0.533161 -0.000622095)
(0.0525071 0.529935 -0.000330538)
(0.0475093 0.520301 0.000998973)
(1.92163e-05 -0.000722187 0.225937)
(-0.0193533 -0.106262 0.00116352)
(5.13801e-06 0.000623178 0.508824)
(0.0916057 0.509521 -0.000282453)
(0.000301027 0.000470797 0.323378)
(0.000304228 0.000473961 0.324746)
(0.479946 -0.191189 -0.00389869)
(0.224926 0.212686 0.00225437)
(0.000174661 8.33021e-05 0.0797356)
(-0.0536671 -0.527977 0.000700742)
(-0.0709739 -0.573395 0.000767271)
(-0.0567724 -0.557951 0.000889291)
(-0.0713584 -0.576455 0.000784749)
(-0.0771814 -0.622752 0.00100045)
(-0.0593609 -0.582941 0.000992205)
(-0.0835187 -0.673173 0.00115543)
(0.177495 0.768399 -0.00144049)
(0.446644 2.18754 -0.0039147)
(0.181 0.783995 -0.00146439)
(0.426137 2.08653 -0.00374729)
(-0.0648304 -0.52483 0.000254334)
(-0.0415519 -0.259284 0.000478988)
(-0.104933 -0.843936 0.00150436)
(-0.0472089 -0.294135 0.000546248)
(1.39345 0.923413 -0.000549585)
(1.39232 0.922647 -0.000269327)
(0.227559 0.98793 -0.000225322)
(0.636455 3.12319 -0.00131132)
(0.596951 2.92885 -0.000733337)
(0.235601 1.02281 -0.000432302)
(0.412974 2.44851 -0.000646636)
(0.479304 2.8415 -0.00120168)
(-0.000150329 -0.00425012 2.98726e-06)
(0.000383077 -0.00157221 6.56987e-07)
(0.0229908 0.13018 -5.86087e-05)
(0.0235117 0.132631 -3.94424e-05)
(0.0519943 0.225837 -0.000283847)
(0.0383155 0.174212 -0.000217707)
(0.062097 0.270462 -0.000378471)
(0.0300851 0.135897 -0.000136878)
(-0.108708 -0.875111 0.00160782)
(-0.0689956 -0.501592 0.000921289)
(0.0198358 0.0937757 -4.24436e-05)
(-0.00965763 -0.0539304 0.0001594)
(0.0630757 0.230043 -0.000442064)
(0.0710341 0.259035 -0.000474235)
(0.03425 0.123485 -0.000239078)
(0.0396623 0.142991 -0.000262169)
(0.283995 1.28499 -0.000277603)
(0.172718 0.749462 -2.21778e-05)
(0.316434 1.49633 -0.000368227)
(0.141539 0.710297 -9.02159e-05)
(-0.018481 -0.155636 0.000169399)
(-0.0418677 -0.310617 0.00031099)
(-0.00681901 -0.0498625 -1.30544e-05)
(0.00126516 0.0026636 -2.13991e-06)
(-0.0175794 -0.120745 2.82123e-05)
(-0.0233263 -0.163585 7.71889e-05)
(0.0970123 0.396671 0.00014501)
(0.0839737 0.312174 -7.59316e-05)
(0.0842101 0.313038 -4.75163e-05)
(0.108427 0.444842 -0.000689633)
(0.165611 0.727451 -0.000187601)
(0.142119 0.654955 -2.89432e-05)
(0.172858 0.759855 -0.000179597)
(0.182025 0.848899 -3.69055e-05)
(-0.00297838 1.45486 -0.000130788)
(0.0646343 0.975979 -0.0002328)
(-0.0027719 1.31582 -0.000308975)
(0.068841 1.03775 -0.000177862)
(-0.0680404 1.66258 -0.000143816)
(1.38959 0.922155 -0.000391861)
(-0.0642846 1.57131 -0.000347176)
(0.493445 4.23044 -0.00155118)
(0.100824 0.396232 -1.64812e-05)
(0.0934995 0.367317 -0.000109375)
(0.064085 0.2349 -2.69265e-05)
(0.0649389 0.238183 5.61308e-06)
(0.0573025 0.300405 -0.000107636)
(0.184668 0.911559 -0.00109919)
(0.022377 0.1248 -6.75672e-05)
(0.0478475 0.256792 -6.22525e-05)
(0.789148 4.93805 0.00258123)
(0.379589 2.5359 0.000611404)
(0.0343521 0.124509 -7.75457e-06)
(0.0341054 0.123723 8.00829e-06)
(1.27101 0.844482 -7.45343e-05)
(0.0901633 0.624447 -0.00114345)
(0.25012 0.234631 -0.000325296)
(0.499462 -0.207078 8.47316e-05)
(0.237007 0.223023 -0.000389069)
(0.517926 -0.2151 -0.000177864)
(0.0639973 0.234646 1.28689e-05)
(0.0288582 0.101481 1.05811e-05)
(0.0328455 0.119112 1.1926e-05)
(0.285696 0.663693 -1.93893e-05)
(0.276064 0.810364 -6.84256e-05)
(0.000597532 0.00167474 0.739163)
(0.000223997 0.000683576 0.365677)
(0.000392461 6.52831e-05 0.385874)
(-0.204444 1.89521 -0.00018538)
(-0.0674089 1.64817 -5.69208e-05)
(1.38203 0.922185 -0.0014261)
(0.0232749 0.0219789 2.33865e-05)
(0.360062 -0.147979 0.000136871)
(0.366185 -0.148871 0.000591679)
(0.023109 0.0217909 1.48206e-05)
(0.000333481 0.00047512 0.552807)
(0.000269235 0.000228188 0.383537)
(0.00026356 0.000395572 0.344234)
(0.00045322 0.000669319 0.36868)
(-0.0902962 -0.727206 0.00127043)
(1.3706 0.907569 -0.00189932)
(1.35794 0.899159 -0.00187428)
(1.33156 0.88166 -0.00182877)
(1.35722 0.898678 -0.00187274)
(0.396293 1.9393 -0.00349164)
(0.174349 0.75415 -0.00141171)
(0.176195 0.762633 -0.00142965)
(0.418456 2.04874 -0.00368607)
(0.269811 1.59468 -0.00283484)
(0.288482 1.70534 -0.00299665)
(-0.0233669 -0.138289 0.000270683)
(-0.030062 -0.177033 0.000345007)
(-0.0545778 -0.339676 0.000643277)
(-0.0492237 -0.306548 0.000572013)
(-0.0396635 -0.232758 0.000461348)
(-0.0325831 -0.191623 0.000374539)
(0.253337 2.15614 -0.00372412)
(0.240481 2.04609 -0.00364597)
(0.0259192 0.0957003 -0.000124207)
(0.0244594 0.0988571 -0.000157301)
(0.036232 0.147352 1.57402e-06)
(0.0340056 0.125788 -0.000188859)
(0.00229725 0.00924324 5.62337e-05)
(0.0290784 0.124611 -5.59534e-05)
(0.0381904 0.165082 -0.000166585)
(0.0233796 0.104262 -3.72446e-05)
(0.0419952 0.15552 -0.00024964)
(0.0463693 0.189113 -4.16204e-05)
(0.0362949 0.134308 -0.000206748)
(0.0425664 0.635936 -0.00108769)
(-0.00168478 1.02368 -0.00172175)
(-0.00188021 1.12805 -0.00189486)
(0.0468515 0.700209 -0.00120196)
(-0.0545828 1.34763 -0.00224663)
(1.32053 0.874322 -0.00180434)
(-0.0570661 1.4086 -0.00235116)
(-0.0490168 1.21098 -0.00201654)
(-0.0533822 1.31817 -0.00219713)
(1.31791 0.87258 -0.00180146)
(-0.00193524 1.15634 -0.00194228)
(0.0511602 0.765716 -0.00130715)
(-0.00204435 1.21277 -0.00203889)
(0.0481579 0.720221 -0.00120778)
(0.226378 1.3376 -0.00229638)
(0.410848 2.55799 -0.00655374)
(0.236969 1.57876 -0.00279551)
(0.246753 1.45759 -0.00263732)
(0.404832 2.52539 -0.00441359)
(0.377193 2.35199 -0.00420944)
(0.195213 1.29861 -0.00322495)
(-0.0808073 -0.593489 0.000695217)
(-0.101833 -0.820146 0.00151008)
(-0.0660044 -0.438375 0.000820469)
(-0.0559365 -0.348753 0.00069279)
(-0.0792924 -0.532132 0.000908869)
(-0.0522581 -0.326693 0.000670166)
(-0.022754 -0.126863 0.000289872)
(-0.0434059 -0.255211 0.000542558)
(0.00649301 0.0256955 0.000211131)
(-0.0460131 -0.271843 0.000563035)
(0.230593 1.03644 -0.00199834)
(0.178808 0.772779 -0.00141514)
(0.236997 1.11707 -0.00203183)
(0.176575 0.763376 -0.00140874)
(0.224079 1.01048 -0.00185653)
(0.241021 1.1349 -0.00241202)
(0.367123 1.79463 -0.00336206)
(0.105299 0.411778 -0.000706431)
(0.08887 0.34745 -0.000628205)
(0.0949803 0.346523 -0.000581192)
(0.0747601 0.272629 -0.000489143)
(0.0862556 0.337259 -0.000623491)
(0.0802174 0.313715 -0.000596095)
(0.0551183 0.198839 -0.000330418)
(0.0422016 0.152151 -0.000272778)
(0.126682 0.293686 -0.000459159)
(0.107839 0.249893 -0.000354227)
(-0.0206577 -0.156633 0.000324594)
(-0.0180646 -0.129271 0.000275654)
(0.0811132 0.414717 -0.00104147)
(0.0856592 0.427684 -0.000751746)
(0.123979 0.654656 -0.00179808)
(-0.0192727 -0.190578 0.000299787)
(-0.0198718 -0.181274 0.000360392)
(-0.0171933 -0.189313 5.26179e-05)
(-0.0212429 -0.294861 0.000502744)
(0.0769891 0.368603 -0.000802496)
(0.0815545 0.407239 -0.000704564)
(-0.00367768 -0.0156417 8.34357e-05)
(0.00660384 0.0255946 6.99499e-05)
(-4.16281e-05 -0.000954574 7.33295e-05)
(0.0135765 0.0497796 -1.38923e-05)
(0.0176279 0.64804 -0.00107889)
(-0.00131998 0.845621 -0.00143761)
(0.0268942 0.567791 -0.0010202)
(0.0360785 0.540412 -0.0010107)
(-0.105828 1.006 -0.00311648)
(-0.0411577 1.01984 -0.00176018)
(1.23478 0.824699 0.00146252)
(-0.464803 1.51258 -0.00219558)
(-0.0450383 1.11389 -0.00187167)
(-0.141452 1.31616 -0.00213586)
(-0.0116093 -0.0607207 0.000171151)
(-0.00834837 -0.0430315 0.000133119)
(-0.0101477 -0.0520427 0.000155233)
(-0.00976968 -0.0513115 0.000149675)
(-0.0247271 -0.135789 0.000179078)
(0.000705701 0.000937088 0.391417)
(0.0583788 0.392919 -0.000706904)
(0.0921986 0.638664 -0.00126262)
(0.0604726 0.406735 -0.000795252)
(0.126287 0.461028 -0.000732114)
(0.153184 0.559498 -0.000900161)
(0.072763 0.262667 -0.000412996)
(0.0615187 0.215264 -0.00034615)
(0.0808946 0.283595 -0.00063636)
(0.0887795 0.320683 -0.000526287)
(0.445819 -0.186287 -0.00267898)
(0.213806 0.196362 0.000575525)
(0.260676 0.242486 -0.000138841)
(0.520663 -0.217197 -0.00100189)
(0.224536 0.973715 -0.00175065)
(0.571075 2.79948 -0.00492796)
(0.22814 0.989467 -0.00175392)
(0.550822 2.70003 -0.00478217)
(-0.0655577 -0.530495 0.000360231)
(-0.00143546 -0.0121301 1.22125e-05)
(-0.000887567 -0.0087486 7.56484e-06)
(0.21162 0.918639 -0.000602934)
(0.744505 3.65267 -0.00306747)
(0.216508 0.939703 -0.000782174)
(-0.0610785 -0.444224 0.000792282)
(0.177676 0.781358 -0.00032436)
(0.144484 0.666884 -0.000313659)
(0.177832 0.782071 -0.000372293)
(0.144424 0.666553 -0.000278081)
(0.0650656 0.238333 -0.000103766)
(0.0665858 0.244035 -9.70786e-05)
(-0.0325532 -0.238964 0.000105361)
(0.16367 0.810189 -0.000377473)
(0.064497 0.339254 -0.000156572)
(0.034959 0.12665 -5.90175e-05)
(0.0384579 0.139415 -6.07233e-05)
(1.39157 0.922274 -0.000253721)
(0.0191454 0.0179627 3.95146e-06)
(0.345694 -0.143453 1.92377e-06)
(0.0296585 0.0278719 -8.5075e-07)
(0.33948 -0.140817 -1.35337e-06)
(-0.0210827 -0.13319 0.000240193)
(-0.0234086 -0.147519 0.000267667)
(-0.0395145 -0.246734 0.00045519)
(-0.0950653 -0.76524 0.0013458)
(-0.0346063 -0.216501 0.000397632)
(0.182908 0.792424 -0.00147973)
(0.194514 0.843436 -0.00156182)
(0.104853 0.459074 -0.00075597)
(0.078807 0.361899 -0.000593505)
(0.108346 0.474482 -0.000785665)
(0.0755014 0.346588 -0.00056336)
(0.0453665 0.206994 -0.000288527)
(0.0707171 0.308518 -0.000455572)
(0.0776035 0.338903 -0.000518006)
(0.0512348 0.234221 -0.000345495)
(0.0574818 0.210319 -0.000435713)
(0.0559307 0.204507 -0.000422874)
(0.0613123 0.223639 -0.000435189)
(0.0575414 0.20998 -0.000420248)
(0.0152048 0.0779402 -0.000106653)
(0.0705861 0.346521 -0.000550496)
(-0.0684809 -0.497712 0.000907786)
(0.0274941 0.132119 -0.000128832)
(-0.00584784 -0.0335839 0.000112841)
(0.0346318 0.167736 -0.00020423)
(0.0311965 0.112891 -0.000239475)
(0.0298701 0.108007 -0.000228897)
(0.0330415 0.11914 -0.000234172)
(0.0305038 0.110042 -0.000223971)
(1.33235 0.88216 -0.00182614)
(1.30072 0.861229 -0.00170432)
(0.129197 0.121713 -0.000247396)
(0.359037 -0.149059 0.000165301)
(0.370356 -0.153758 0.000172205)
(0.117086 0.110292 -0.000227989)
(0.47827 -0.198317 0.000169791)
(0.220706 0.207886 -0.000388226)
(0.206466 0.194539 -0.000370168)
(0.458328 -0.190155 0.000177895)
(0.000140617 -0.00849506 8.7427e-06)
(-5.1532e-05 -0.0226626 2.56419e-05)
(-0.0528382 -0.520039 0.000590117)
(-9.95846e-05 -0.0261941 3.57054e-05)
(-0.000174457 -0.031759 3.6076e-05)
(-0.0691734 -0.559128 0.000640472)
(-0.0554844 -0.545521 0.000819699)
(-0.000224605 -0.0353609 5.79957e-05)
(-0.00022603 -0.0355006 5.57379e-05)
(-0.0739411 -0.596989 0.000895309)
(-0.0744569 -0.601092 0.000910565)
(-4.78888e-05 -0.0222279 4.2352e-05)
(-0.0584352 -0.574006 0.000957463)
(-0.000268504 -0.0385216 6.76025e-05)
(-0.0808688 -0.65208 0.00109652)
(1.38578 0.917708 -0.00192737)
(1.38414 0.916601 -0.00192717)
(1.38207 0.915213 -0.0019241)
(1.38621 0.917968 -0.00192967)
(0.204701 0.887986 -0.00160128)
(0.521096 2.55433 -0.00454294)
(0.540093 2.64755 -0.00468749)
(0.187798 0.814553 -0.00149414)
(0.178312 0.772069 -0.00144513)
(0.235231 1.06174 -0.00195114)
(0.266176 1.25598 -0.00226909)
(0.440122 2.15542 -0.00386063)
(0.179762 0.778487 -0.00145519)
(0.242452 1.09476 -0.00200406)
(0.255646 1.20592 -0.00218696)
(0.43266 2.11867 -0.00380632)
(1.39158 0.922097 -0.00102333)
(1.39208 0.922466 -0.00083426)
(1.39229 0.922636 -0.000588741)
(1.39193 0.922372 -0.000804385)
(0.507642 3.00959 -0.00144345)
(0.494364 2.9307 -0.00190564)
(-0.000307055 -0.0051835 3.70319e-06)
(-0.0653195 -0.528621 0.00033317)
(-0.000692874 -0.00754821 6.2741e-06)
(0.0217262 0.122864 -0.000100689)
(0.0222698 0.126028 -8.73843e-05)
(0.0228324 0.129291 -6.4761e-05)
(0.0224675 0.127177 -8.22651e-05)
(0.224654 0.975167 -0.000487298)
(0.204895 0.889419 -0.000527536)
(0.692488 3.39768 -0.0020622)
(-0.0550598 -0.365993 0.00066157)
(-0.0433321 -0.270252 0.000499766)
(-0.0645848 -0.469506 0.000842781)
(-0.0453459 -0.282656 0.000523829)
(-0.0597045 -0.396562 0.00072174)
(0.538367 4.60747 -0.00190384)
(0.546715 4.67912 -0.00155099)
(0.083865 0.311768 -8.68222e-05)
(0.108443 0.444935 0.000444472)
(0.108445 0.444955 -0.000738752)
(0.0836693 0.311046 -0.000115692)
(0.141087 0.650497 -0.000234437)
(0.17644 0.775777 -0.000230446)
(0.177418 0.780176 -0.000279946)
(0.144033 0.664592 -0.00024224)
(0.108361 0.444609 0.00038865)
(0.0833744 0.309954 -0.000153283)
(0.108202 0.443949 -0.000790791)
(0.0835661 0.310664 -0.000126298)
(0.0638401 0.964807 -0.000227689)
(-0.00266828 1.26359 -0.000335993)
(-0.00253625 1.19465 -0.000421053)
(0.0629134 0.95086 -0.000326754)
(-0.0608048 1.48563 -0.000563021)
(1.3928 0.922981 -0.000440491)
(-0.0611907 1.49543 -0.000713866)
(-0.0627729 1.53418 -0.000389218)
(-0.0605327 1.479 -0.000513506)
(1.39305 0.923141 -0.000391726)
(-0.00257046 1.2115 -0.00045732)
(0.0588434 0.888472 -0.000429463)
(-0.0026561 1.26022 -0.000613787)
(0.0626835 0.947286 -0.000360637)
(0.307831 1.39289 -0.000300418)
(0.234818 1.01946 -0.000287769)
(0.625821 3.07101 -0.00103873)
(0.372203 1.76015 -0.000742168)
(0.333719 1.57818 -0.000323289)
(0.613616 3.01092 -0.000924594)
(0.236033 1.02479 -0.000359889)
(0.332972 1.50659 -0.000630355)
(0.0840152 0.330013 -0.000129527)
(0.0641219 0.251755 -0.000101693)
(0.0656493 0.240549 -3.21792e-05)
(0.0645272 0.236576 -8.68726e-05)
(0.0632504 0.248226 -0.000102189)
(0.702178 4.39318 -0.00150834)
(0.435258 2.58038 -0.000830673)
(0.721557 4.51537 -0.00148382)
(0.451666 3.02041 -0.00119193)
(0.456991 3.05557 -0.00100009)
(0.45473 2.69594 -0.000954243)
(-0.0306436 -0.225663 6.91812e-05)
(-0.0190286 -0.129051 5.83731e-05)
(-1.3124e-05 -0.0034864 2.20169e-06)
(-0.0181937 -0.124171 3.90897e-05)
(8.42936e-05 -0.00306817 1.94285e-06)
(0.0638673 0.335412 -9.73159e-05)
(0.161546 0.798825 -0.000232837)
(0.16388 0.810911 -0.000288933)
(0.0489069 0.263587 -0.000120518)
(0.0230978 0.130728 -5.22024e-05)
(0.0490032 0.263594 -7.90074e-05)
(0.0231934 0.131114 -4.50063e-05)
(0.0377613 0.136821 -6.90633e-06)
(0.0372953 0.135253 -5.16366e-05)
(0.0652584 0.237987 -0.000451241)
(0.0677171 0.246936 -0.000460835)
(0.0315952 0.110442 -0.000214761)
(0.0357382 0.128844 -0.000245482)
(0.0374852 0.131035 -0.000239394)
(0.0374223 0.13491 -0.000252352)
(0.274996 0.807317 -0.000190604)
(0.275769 0.809512 -0.000126113)
(0.28588 0.664205 -0.00012485)
(0.285951 0.664359 -0.000110842)
(-0.204986 1.89995 -0.000206961)
(-0.0671142 1.6411 -0.000256477)
(1.39073 0.922096 -0.000285934)
(-0.860374 2.7983 -0.000509449)
(-0.0657927 1.60849 -0.00030564)
(-0.199499 1.84801 -0.000385671)
(0.0640943 0.235131 -1.43512e-05)
(0.0648196 0.237796 -2.04799e-06)
(0.0335735 0.121809 -5.37463e-06)
(0.0301978 0.106134 -3.83826e-06)
(0.029497 0.103748 1.02836e-05)
(0.0340306 0.12348 2.83521e-06)
(0.410324 2.4287 -0.00426894)
(0.386801 2.28924 -0.0040543)
(2.40412e-05 -0.00290878 1.77617e-05)
(-0.00261776 -0.0182025 4.61225e-05)
(-0.0275227 -0.172864 0.000315679)
(-0.0244692 -0.154054 0.000279775)
(-0.00727778 -0.0451759 9.62599e-05)
(-0.00383103 -0.025226 5.88522e-05)
(1.36906 0.906554 -0.00189776)
(1.37774 0.912322 -0.00191368)
(1.38333 0.916045 -0.00192555)
(1.37839 0.912751 -0.00191489)
(-0.0209638 -0.124382 0.000244551)
(-0.015338 -0.0918256 0.000183024)
(0.35092 2.07589 -0.00364799)
(0.376978 2.23086 -0.00394967)
(-0.0936281 -0.753779 0.00132337)
(-0.0289177 -0.181458 0.000331613)
(-0.0328892 -0.205924 0.000377823)
(-0.00887586 -0.0544257 0.000113199)
(-0.0133536 -0.0803417 0.000161705)
(0.196334 0.851369 -0.0015606)
(0.512813 2.51367 -0.00449134)
(0.188435 0.817246 -0.00149807)
(0.477355 2.33916 -0.00420219)
(0.282682 2.40677 -0.00417495)
(0.290949 2.47755 -0.00430862)
(0.0668117 0.273192 -0.000101891)
(0.0541126 0.20062 -0.000337998)
(0.0568997 0.210992 -0.000358082)
(0.0629417 0.257275 -0.000750118)
(0.0999401 0.437414 -0.000713812)
(0.0670329 0.307382 -0.000488567)
(0.0955893 0.418232 -0.000675476)
(0.0710424 0.325941 -0.000524987)
(0.0601367 0.223041 -0.000381314)
(0.0578273 0.214445 -0.000364928)
(0.0715285 0.292595 -0.000114671)
(-0.00235905 1.37292 -0.00231172)
(0.0573864 0.85941 -0.00146518)
(0.0586694 0.878726 -0.00149773)
(-0.0023067 1.34654 -0.00226629)
(-0.0642258 1.58425 -0.00265047)
(1.36758 0.905559 -0.00189105)
(-0.0649366 1.60161 -0.00268234)
(-0.00237755 1.38198 -0.00232676)
(0.0601139 0.900502 -0.00153543)
(-0.00240737 1.39505 -0.00235108)
(0.0590905 0.885071 -0.00150864)
(-0.0638018 1.57386 -0.00263306)
(1.36499 0.90384 -0.00188648)
(-0.0626301 1.54513 -0.00258334)
(0.316627 2.69693 -0.00465827)
(0.310803 2.64712 -0.00457597)
(0.0438075 0.162267 -0.000263201)
(0.0480925 0.178215 -0.000294355)
(0.0564861 0.230725 -0.000663799)
(0.0529127 0.196154 -0.000329444)
(0.0611349 0.249844 -8.65852e-05)
(0.0495429 0.183612 -0.000304822)
(0.084247 0.368207 -0.000577662)
(0.0616748 0.282578 -0.000441115)
(0.0894288 0.391065 -0.000623145)
(0.0569816 0.260844 -0.000398048)
(-0.0577424 1.42513 -0.00237974)
(-0.0599952 1.48051 -0.00247157)
(1.34527 0.890747 -0.00185044)
(0.0519927 0.778276 -0.00132882)
(-0.0020785 1.22873 -0.00206661)
(-0.00218175 1.28367 -0.0021579)
(0.0543142 0.813166 -0.00138701)
(-0.00221316 1.29977 -0.00218541)
(0.0568364 0.851109 -0.00145143)
(0.0551049 0.825059 -0.00140669)
(-0.00228249 1.3352 -0.00224744)
(-0.0606649 1.49695 -0.00249968)
(1.35061 0.894288 -0.00185879)
(-0.0621565 1.53354 -0.00256421)
(0.0748087 0.293093 -0.000576608)
(0.0750279 0.293815 -0.000577626)
(0.0552618 0.201876 -0.000414771)
(0.0555494 0.203067 -0.000419597)
(0.0750375 0.29417 -0.000578268)
(0.239873 1.13091 -0.00206104)
(0.40337 1.9743 -0.00358316)
(0.225175 1.01564 -0.00187055)
(0.174306 0.754142 -0.00142025)
(0.175325 0.75872 -0.00142574)
(0.232315 1.04843 -0.00192857)
(0.411464 2.01428 -0.00362418)
(0.251472 1.1861 -0.00215515)
(0.076386 0.298892 -0.000581121)
(0.0759951 0.297412 -0.000580223)
(0.0750307 0.293778 -0.00057698)
(0.0553028 0.201979 -0.000413718)
(0.0567649 0.207187 -0.000417678)
(0.26286 1.75162 -0.00307091)
(0.419528 2.61751 -0.00460773)
(0.275997 1.6313 -0.00287799)
(0.282517 1.66997 -0.00294422)
(0.449861 2.80722 -0.00491542)
(0.440149 2.74656 -0.00481678)
(0.269479 1.79586 -0.00313523)
(-0.000593905 -0.00597523 4.0902e-05)
(-0.0254205 -0.150176 0.000293054)
(0.0544519 0.266331 -0.000397728)
(0.00725667 0.0358911 -2.65718e-05)
(-0.0278418 -0.164187 0.000319961)
(-0.00812366 -0.0469226 0.000119272)
(-0.0652222 -0.433016 0.000802547)
(-0.0528445 -0.328902 0.000619236)
(-0.0657323 -0.477772 0.000861139)
(-0.0510776 -0.317978 0.000594409)
(-0.0612822 -0.406954 0.000743954)
(0.461082 2.87744 -0.00503214)
(0.470445 2.93604 -0.00512778)
(0.292992 1.95309 -0.00339421)
(0.286994 1.91298 -0.00332739)
(-0.0198898 -0.111067 0.000249928)
(-0.0372885 -0.218911 0.000429793)
(0.0478234 0.233382 -0.000333849)
(0.00396725 0.0184857 6.83968e-06)
(0.0416464 0.202658 -0.00027497)
(-0.0349014 -0.205056 0.000400527)
(-0.0111276 -0.0632612 0.000150991)
(0.0291118 0.10515 -0.0002212)
(0.0295291 0.106745 -0.000226072)
(0.0291115 0.10512 -0.000220271)
(0.0299869 0.108201 -0.000222234)
(0.121993 0.357233 -0.00056703)
(0.148068 0.4338 -0.000723286)
(0.196716 0.456368 -0.000802972)
(0.191462 0.444167 -0.000779411)
(0.163932 0.380251 -0.000655447)
(0.172159 0.399362 -0.000696328)
(0.155085 0.454413 -0.000764801)
(-0.611483 1.99142 -0.0031672)
(1.32735 0.878839 -0.00181469)
(-0.056339 1.39075 -0.00231999)
(-0.169424 1.57551 -0.00259954)
(-0.584003 1.9021 -0.00308665)
(-0.513609 1.67223 -0.00256282)
(-0.531925 1.73222 -0.00276068)
(-0.14667 1.36464 -0.00224741)
(-0.0505238 1.24799 -0.00207638)
(1.31099 0.867973 -0.00176606)
(-0.566728 1.84598 -0.00294128)
(0.086955 0.317168 -0.000539914)
(0.0800052 0.291797 -0.000513471)
(0.142666 0.134414 -0.00026889)
(0.400224 -0.166161 0.000189532)
(0.384511 -0.159635 0.000180691)
(0.156621 0.147575 -0.000289245)
(0.0537397 0.187985 -0.000309204)
(0.0501357 0.180809 -0.000305414)
(0.0455876 0.164382 -0.000288013)
(0.0402358 0.140658 -0.000250461)
(0.187784 0.176953 -0.000339577)
(0.418301 -0.173656 0.000188898)
(0.4365 -0.181175 0.00018938)
(0.172511 0.162559 -0.000312803)
(0.730399 3.58317 -0.00318381)
(0.218608 0.948729 -0.000831759)
(0.226692 0.983873 -0.000959882)
(0.672197 3.29737 -0.00331253)
(0.229158 0.994222 -0.00140612)
(0.642015 3.1484 -0.00427322)
(0.222457 0.965212 -0.00131502)
(0.655305 3.21377 -0.00461239)
(0.246671 1.07 -0.00183757)
(0.676693 3.31808 -0.00532488)
(0.247087 1.07188 -0.00173909)
(0.690705 3.38651 -0.00571762)
(-0.0660528 -0.534403 0.00041125)
(-0.0336604 -0.2468 0.000203384)
(-0.0475824 -0.346927 0.000600717)
(-0.0597591 -0.434711 0.000773801)
(-0.0977655 -0.786776 0.0013879)
(-0.0533235 -0.524687 0.000656073)
(-0.00537097 -0.16264 0.000214905)