/*--------------------------------*- C++ -*----------------------------------*\
| =========                 |                                                 |
| \\      /  F ield         | OpenFOAM: The Open Source CFD Toolbox           |
|  \\    /   O peration     | Version:  2306                                  |
|   \\  /    A nd           | Website:  www.openfoam.com                      |
|    \\/     M anipulation  |                                                 |
\*---------------------------------------------------------------------------*/
FoamFile
{
    version     2.0;
    format      ascii;
    arch        "LSB;label=32;scalar=64";
    class       volScalarField;
    location    "1";
    object      p;
}
// * * * * * * * * * * * * * * * * * * * * * * * * * * * * * * * * * * * * * //

dimensions      [0 2 -2 0 0 0 0];

internalField   nonuniform List<scalar> 
111542
(
61.7123
62.9927
66.0689
71.116
78.2083
87.55
99.2968
113.482
129.627
146.339
161.103
169.958
168.875
156.607
136.116
113.052
91.414
72.7785
57.3463
44.9681
35.2202
27.7402
22.1228
17.8626
14.6296
12.1497
10.1446
8.58199
7.41181
6.50745
5.78716
5.19575
4.74598
4.36755
4.00875
3.62751
3.17039
2.63274
1.91494
0.928435
60.5625
61.8014
64.8451
69.8332
76.9205
86.4155
98.6852
113.983
132.153
152.15
171.331
184.194
183.167
166.895
141.052
114.198
90.5413
70.8709
55.0212
42.603
33.0932
25.9184
20.5484
16.6085
13.6564
11.3644
9.56368
8.17009
7.09471
6.24581
5.56152
5.0036
4.5485
4.15674
3.78892
3.40728
2.96859
2.42809
1.71689
0.780411
58.2879
59.4587
62.3619
67.1728
74.156
83.8129
96.8498
114.075
136.16
162.96
191.183
212.314
212.208
186.768
150.559
117.219
89.7438
67.9914
51.2876
38.7361
29.4758
22.8892
18.1859
14.7576
11.9497
9.65136
7.91043
6.639
5.69632
4.98139
4.43465
4.0149
3.68711
3.41768
3.17142
2.91125
2.59254
2.15863
1.53687
0.652959
54.9532
55.9982
58.6124
63.0186
69.5935
79.0564
92.5523
111.782
139.158
177.937
212.751
255.16
260.63
219.716
167.42
126.623
93.3834
68.223
49.9168
36.6995
23.2622
16.9762
14.5869
13.2617
11.3279
9.30267
7.67908
6.44534
5.47068
4.68485
4.05685
3.55891
3.16255
2.83777
2.55589
2.28468
1.97834
1.57276
0.970065
0.041159
50.6859
51.526
53.651
57.3015
62.9096
71.3144
83.9604
103.279
133.316
177.95
254.807
340.902
364.47
256.642
171.847
122.323
82.6273
56.0559
38.6812
27.5868
20.5116
5.49374
4.99631
5.67336
5.04286
4.25126
3.71254
3.31733
2.98113
2.69821
2.47225
2.29495
2.15604
2.04113
1.93861
1.83189
1.68788
1.44838
0.98169
-0.0537959
45.7017
46.2502
47.6631
50.1415
54.0579
60.1454
69.7404
85.3151
111.675
166.426
260.28
455.434
620.034
248.428
175.033
113.49
65.9209
39.8578
24.6246
15.4632
13.144
11.3658
11.8614
7.82845
4.84931
3.4353
2.6757
2.09912
1.63272
1.28523
1.04005
0.869041
0.751448
0.672096
0.62061
0.586115
0.553896
0.51167
0.46386
0.532009
40.3142
40.4994
41.0143
41.9607
43.5194
46.0335
50.1015
56.7367
67.6867
107.344
183.641
414.964
1951.79
-416.804
205.211
76.5559
29.7673
15.0366
7.22956
-2.07099
-5.49304
17.9367
16.2568
9.99439
6.26884
4.70217
3.91478
3.33236
2.87023
2.52676
2.27533
2.08346
1.93231
1.81058
1.71213
1.63233
1.55901
1.49009
1.44394
1.55945
34.9206
34.7125
34.249
33.5031
32.4095
30.8045
28.302
23.9811
15.4846
18.0594
1.55187
-160.472
-1011.28
-1051.66
-312.27
-102.37
-47.4228
-26.7711
-17.2867
-10.6991
-3.4377
-7.79272
-6.04357
-4.37434
-3.40408
-2.4532
-1.56024
-0.863798
-0.348645
0.0495963
0.370719
0.632951
0.848376
1.02539
1.16882
1.27765
1.33643
1.3136
1.14215
0.687291
29.9381
29.3825
27.9966
25.6612
22.118
16.8215
8.76486
-3.9303
-24.8807
-47.8631
-121.265
-266.347
-478.385
-507.842
-321.293
-176.243
-101.504
-61.9513
-39.6987
-25.5322
-15.3282
-8.36668
-4.21248
-1.31895
0.377827
1.39941
2.10508
2.59257
2.90385
3.09077
3.19634
3.24631
3.25467
3.22837
3.16736
3.06436
2.89453
2.60743
2.10444
1.18755
25.8137
24.9495
22.8091
19.2015
13.7578
5.7649
-5.97056
-23.4114
-49.8432
-90.9007
-148.62
-221.674
-287.761
-296.614
-239.327
-166.252
-110.79
-75.0442
-51.8015
-35.6738
-24.2061
-16.5097
-11.4144
-7.82924
-5.29617
-3.49225
-2.14493
-1.10994
-0.316675
0.290453
0.759947
1.1268
1.41201
1.62618
1.76908
1.83349
1.79485
1.60806
1.20918
0.546432
22.8613
21.7844
19.1264
14.6643
7.98896
-1.60864
-15.222
-34.3394
-60.8383
-96.6242
-141.761
-191.178
-230.227
-237.88
-207.805
-159.071
-114.556
-81.9285
-58.9562
-42.2046
-29.7433
-20.6074
-13.9324
-9.05523
-5.50361
-2.93198
-1.06193
0.30516
1.2996
2.01428
2.5209
2.87233
3.10366
3.23422
3.26287
3.19924
3.01824
2.67092
2.08206
1.11904
21.3223
20.1502
17.2161
12.3511
5.06725
-5.24329
-19.5906
-39.1179
-64.9992
-97.6384
-135.623
-173.651
-201.786
-208.341
-188.972
-153.115
-115.572
-84.9592
-62.1491
-45.1149
-32.2457
-22.6264
-15.5724
-10.4541
-6.79141
-4.15752
-2.24868
-0.853969
0.170335
0.923244
1.47627
1.88044
2.17075
2.37113
2.42705
2.41276
2.28487
1.99064
1.47737
0.689942
61.2417
62.4644
65.4674
70.3539
77.2096
86.2271
97.5905
111.286
126.838
142.947
157.187
165.707
164.539
152.589
132.674
110.219
89.1614
70.9955
55.9607
43.8962
34.4457
27.1824
21.6776
17.5231
14.3542
11.8816
9.92229
8.39701
7.23147
6.33367
5.63104
5.07437
4.63274
4.26172
3.91864
3.56315
3.15107
2.63496
1.93668
0.959311
60.0999
61.293
64.2423
69.0699
75.9225
85.0967
96.9494
111.717
129.253
148.57
167.115
179.648
178.411
162.519
137.391
111.289
88.2678
69.1025
53.6736
41.6092
32.3921
25.4195
20.1737
16.3041
13.3879
11.1119
9.32813
7.94932
6.88524
6.05155
5.38821
4.85484
4.42008
4.04863
3.70543
3.35366
2.95161
2.44622
1.76771
0.840878
57.8452
58.9705
61.7753
66.4263
73.1736
82.4994
95.088
111.726
133.073
159.015
186.348
206.768
206.753
181.907
146.652
114.25
87.4758
66.2541
50.0036
37.8589
28.9624
22.62
17.9976
14.5576
11.7496
9.47655
7.76593
6.52247
5.60504
4.91253
4.38546
3.98223
3.6679
3.41006
3.17737
2.93556
2.64327
2.24224
1.65106
0.763443
54.5416
55.5414
58.0605
62.3122
68.656
77.7868
90.8178
109.412
135.942
173.635
208.916
250.528
255.768
215.148
163.954
124.155
91.5362
66.7901
48.84
35.9562
22.7541
16.9568
14.5073
12.9295
10.8528
8.80097
7.20813
6.03197
5.12604
4.40919
3.84399
3.39917
3.0469
2.7595
2.51254
2.27894
2.01999
1.67321
1.13496
0.243281
50.317
51.1147
53.1541
56.666
62.0646
70.1629
82.3705
101.075
130.272
174.909
250.689
335.689
358.277
250.368
167.515
119.941
80.9438
54.7427
37.6891
26.8497
19.9989
6.42229
5.49592
5.76876
5.01718
4.19298
3.63403
3.2269
2.88434
2.59522
2.3608
2.17194
2.02034
1.89484
1.78722
1.68802
1.57466
1.39553
1.02554
0.142382
45.3871
45.8977
47.2415
49.6102
53.3613
59.2078
68.4599
83.5585
109.286
163.936
257.51
451.559
614.026
239.451
168.36
112.499
65.3357
39.1897
24.0337
14.9729
13.0814
13.2594
12.2301
7.37777
4.29271
2.97736
2.34757
1.897
1.53551
1.26131
1.05858
0.905917
0.792557
0.712512
0.66396
0.64552
0.654997
0.689826
0.751546
0.879507
40.06
40.2175
40.6857
41.5615
43.0194
45.3961
49.2871
55.7193
66.4993
106.139
182.654
416.054
1940.09
202.44
75.2325
28.1334
13.8053
6.28809
-3.11001
-12.4315
12.665
13.1258
7.98108
4.87072
3.71839
3.17868
2.72506
2.3214
1.99508
1.73797
1.53142
1.36691
1.24008
1.15031
1.0981
1.08136
1.09853
1.13928
1.14689
34.7127
34.5048
34.0203
33.2472
32.1257
30.5007
28.0084
23.7848
15.5925
18.3719
2.75792
-154.857
-987.777
-1035.66
-306.931
-101.154
-46.9212
-26.7786
-17.6556
-11.2749
-4.05865
-8.82689
-6.73253
-4.91929
-3.8448
-2.78853
-1.82088
-1.07719
-0.529708
-0.110241
0.222458
0.489892
0.708315
0.88962
1.04367
1.1751
1.27613
1.31764
1.22217
0.799917
29.8021
29.2394
27.8543
25.5354
22.0317
16.817
8.92314
-3.46139
-23.8347
-46.5988
-118.262
-260.621
-469.453
-497.015
-315.475
-172.936
-99.4945
-60.874
-39.2615
-25.5007
-15.4898
-9.01089
-5.0308
-2.09299
-0.268255
0.865295
1.64241
2.1686
2.49714
2.68733
2.78785
2.8296
2.83091
2.80234
2.74767
2.6637
2.53017
2.29958
1.87443
1.05962
25.7197
24.8581
22.7444
19.186
13.8308
5.9934
-5.47965
-22.4856
-48.206
-88.1218
-144.232
-215.384
-280.115
-288.72
-232.935
-161.854
-108.019
-73.416
-50.9458
-35.3548
-24.2671
-16.849
-11.8661
-8.26793
-5.69858
-3.86685
-2.49749
-1.44478
-0.638976
-0.02423
0.44947
0.81864
1.10614
1.3244
1.47664
1.55797
1.54717
1.40195
1.06082
0.47291
22.8001
21.7377
19.1153
14.719
8.16946
-1.22989
-14.5307
-33.1693
-58.9547
-93.7405
-137.603
-185.644
-223.729
-231.398
-202.215
-154.954
-111.784
-80.1726
-57.916
-41.6753
-29.5829
-20.7056
-14.1807
-9.38436
-5.8743
-3.32126
-1.4552
-0.0856612
0.911607
1.62724
2.13308
2.48278
2.71245
2.8435
2.88318
2.83291
2.6731
2.36102
1.82913
0.967096
21.2801
20.1154
17.2356
12.4241
5.30201
-4.79767
-18.815
-37.8623
-63.0291
-94.7827
-131.721
-168.717
-196.16
-202.736
-184.073
-149.219
-112.764
-83.0958
-60.981
-44.4566
-31.9539
-22.5959
-15.7177
-10.7213
-7.10888
-4.4959
-2.59578
-1.20281
-0.177146
0.577718
1.13216
1.53672
1.82514
2.01536
2.10528
2.10436
1.99113
1.72541
1.26289
0.57506
60.305
61.4414
64.2574
68.8318
75.2376
83.6476
94.228
106.946
121.35
136.248
149.369
157.146
155.913
144.585
125.771
104.547
84.6057
67.3636
53.0927
41.6541
32.7026
25.7898
20.5072
16.5154
13.4794
11.1151
9.25131
7.79469
6.66956
5.8002
5.12195
4.5866
4.15741
3.80054
3.48125
3.16207
2.80094
2.34566
1.72705
0.855203
59.1832
60.2897
63.0471
67.5607
73.9577
82.5063
93.5312
107.242
123.501
141.397
158.587
170.073
168.879
153.856
130.148
105.516
83.7158
65.5209
50.892
39.4864
30.7819
24.1128
19.0525
15.3472
12.5841
10.422
8.7078
7.36276
6.31068
5.48107
4.82121
4.29259
3.86368
3.50473
3.18572
2.87335
2.52808
2.0974
1.51389
0.706417
56.9688
58.0068
60.6193
64.9569
71.2422
79.9167
91.6136
107.066
126.902
151.045
176.537
195.746
195.539
172.017
138.838
108.312
82.8965
62.7021
47.3113
35.9106
27.6828
21.595
17.0161
13.6658
11.0144
8.87625
7.2411
6.02881
5.11976
4.42529
3.89256
3.48469
3.16979
2.92052
2.71026
2.51076
2.28465
1.9761
1.49673
0.710572
53.7283
54.6428
56.9771
60.9264
66.8163
75.2892
87.3857
104.675
129.418
164.743
199.498
239.225
244.066
204.828
156.195
118.605
87.3078
63.4986
46.337
34.1421
21.5237
16.2539
13.8645
12.2121
10.0505
7.90331
6.206
4.93402
3.95392
3.18903
2.59992
2.15281
1.81696
1.56467
1.37432
1.22446
1.08429
0.898398
0.561548
-0.115527
49.5901
50.3096
52.1835
55.4239
60.4093
67.8962
79.2124
96.6274
123.993
167.466
240.285
322.481
343.86
237.874
159.859
115.507
77.4577
51.8241
35.3413
25.0087
18.4722
5.48907
4.97239
5.50636
4.70937
3.6907
2.93229
2.36038
1.88693
1.49739
1.19159
0.960803
0.797115
0.689015
0.632185
0.622711
0.65292
0.688949
0.616403
0.0400805
44.7667
45.2137
46.4246
48.5777
52.0012
57.3629
65.9082
79.9794
104.248
157.602
249.314
440.082
598.028
222.485
161.158
109.903
63.384
37.3194
22.3938
13.6094
10.0611
10.2506
8.46938
3.545
0.277612
-1.27005
-2.02639
-2.48384
-2.77282
-2.93025
-2.99337
-2.99868
-2.95315
-2.86717
-2.73748
-2.55277
-2.28809
-1.89897
-1.2848
-0.125613
39.5744
39.676
40.0558
40.7942
42.0514
44.1474
47.6579
53.6131
63.8854
102.88
179.002
412.903
1921.62
193.689
80.5679
30.1553
13.3171
4.85781
-4.98983
-11.3695
11.528
11.1368
5.41563
2.10847
0.885767
0.334657
-0.0789755
-0.411579
-0.65757
-0.83542
-0.965284
-1.05548
-1.09991
-1.09135
-1.01424
-0.842719
-0.539083
-0.0321534
0.808633
34.3266
34.1098
33.5886
32.7658
31.5883
29.9148
27.4232
23.3501
15.6846
18.8995
5.2676
-144.682
-956.497
-1010.47
-297.508
-94.9832
-44.2436
-26.1851
-18.151
-12.3979
-5.20309
-9.28204
-7.84437
-6.62338
-5.65869
-4.54379
-3.50279
-2.68313
-2.05611
-1.56073
-1.15798
-0.825136
-0.545409
-0.302338
-0.074969
0.151833
0.390159
0.632332
0.822719
0.750636
29.5455
28.9801
27.6071
25.3224
21.8953
16.838
9.2568
-2.52175
-21.7484
-43.4985
-111.346
-247.431
-448.773
-476.33
-301.628
-164.666
-94.8805
-58.54
-38.3185
-25.4067
-15.8882
-9.96133
-6.20927
-3.39221
-1.59676
-0.454756
0.347042
0.909824
1.28261
1.51924
1.66665
1.75522
1.80471
1.82781
1.83677
1.83563
1.81571
1.74211
1.52391
0.947537
25.5613
24.7161
22.6514
19.1926
14.0143
6.4808
-4.47766
-20.6232
-44.9211
-82.5082
-135.338
-202.623
-264.325
-272.962
-220.422
-153.361
-102.745
-70.3131
-49.2559
-34.63
-24.2415
-17.3663
-12.4296
-8.83298
-6.33621
-4.5753
-3.23654
-2.18313
-1.36009
-0.719903
-0.21569
0.186832
0.510852
0.767598
0.966746
1.10726
1.1746
1.13322
0.921199
0.460343
22.7099
21.6763
19.1306
14.8768
8.56778
-0.442904
-13.1281
-30.8184
-55.191
-87.9815
-129.308
-174.679
-210.911
-218.534
-191.277
-146.854
-106.294
-76.6214
-55.7121
-40.4304
-29.0347
-20.6365
-14.3429
-9.69685
-6.32532
-3.87995
-2.07786
-0.738057
0.250671
0.970967
1.49047
1.86018
2.11546
2.27765
2.3589
2.35963
2.26523
2.04008
1.62044
0.890204
21.2228
20.095
17.3058
12.6558
5.80407
-3.87079
-17.2334
-35.3136
-59.1107
-89.073
-123.906
-158.855
-184.933
-191.449
-174.149
-141.488
-107.251
-79.3742
-58.5654
-42.9892
-31.1805
-22.3119
-15.7418
-10.9282
-7.43236
-4.90334
-3.0602
-1.69878
-0.685317
0.0705504
0.634805
1.05553
1.36515
1.58167
1.71241
1.75497
1.69476
1.50042
1.12999
0.543748
58.951
59.9691
62.5139
66.6472
72.4179
79.9638
89.415
100.72
113.456
126.555
137.996
144.623
143.277
132.869
115.711
96.3356
78.0475
62.1696
49.0149
38.4779
30.2217
23.7859
18.7796
14.9448
12.036
9.80074
8.06058
6.71002
5.67113
4.87333
4.25515
3.77023
3.38392
3.06711
2.79041
2.52226
2.22662
1.85783
1.35706
0.653809
57.8583
58.8452
61.3295
65.3977
71.1469
78.7996
88.6269
100.795
115.16
130.908
146.001
155.82
154.641
140.985
119.484
97.075
77.0964
60.351
46.9033
36.4474
28.4513
22.1429
17.2219
13.6253
11.0085
9.00129
7.42028
6.18292
5.22009
4.46806
3.87672
3.40753
3.03153
2.72282
2.45676
2.20692
1.94075
1.61341
1.16519
0.532608
55.7031
56.6212
58.9618
62.8528
68.4764
76.2099
86.6002
100.283
117.805
139.103
161.585
178.68
178.196
156.941
127.104
99.4292
76.0902
57.4909
43.4019
33.0729
25.7256
19.6632
14.7446
11.3815
9.02343
7.2226
5.84829
4.8236
4.05429
3.4648
3.00991
2.66059
2.39295
2.18504
2.02052
1.88048
1.73911
1.55023
1.22921
0.616187
52.5559
53.3532
55.4267
58.9433
64.1777
71.6876
82.3877
97.6683
119.554
150.898
183.952
220.233
224.504
188.209
144.034
109.708
80.4831
58.2772
42.4295
31.2902
19.2254
13.5786
10.617
8.94536
7.21836
5.56637
4.25791
3.27149
2.50591
1.90094
1.42685
1.06448
0.791791
0.589323
0.451896
0.37251
0.340808
0.322321
0.224849
-0.192204
48.543
49.1579
50.7983
53.6477
58.0304
64.6091
74.5627
89.9221
114.196
154.958
221.921
298.65
318.8
218.567
148.615
107.772
71.0872
46.6936
31.3468
21.7587
14.6537
-3.00897
-1.51428
1.03797
1.40464
1.03857
0.671136
0.337884
0.006002
-0.304207
-0.571243
-0.77901
-0.931568
-1.0296
-1.06083
-1.01087
-0.858498
-0.596154
-0.293757
-0.355001
43.8686
44.2403
45.2645
47.1043
50.0441
54.6727
62.1004
74.4504
96.0508
146.241
233.518
417.392
569.131
199.574
154.532
106.117
58.2349
32.3108
18.1305
9.62476
-0.282166
-2.90101
-0.54766
-1.00503
-2.16489
-2.85306
-3.2353
-3.54995
-3.83191
-4.06081
-4.23252
-4.36566
-4.44191
-4.46355
-4.41056
-4.24652
-3.9075
-3.27761
-2.15005
-0.185597
38.8504
38.9112
39.1675
39.7039
40.6596
42.3147
45.1882
50.2484
59.3237
96.3141
170.256
402.905
1888.62
209.825
79.2623
24.7746
7.3813
-0.790255
-10.4876
-18.2203
12.8045
10.8745
4.17154
0.214284
-1.59295
-2.59001
-3.29688
-3.81697
-4.18466
-4.4392
-4.60463
-4.70184
-4.7362
-4.68137
-4.50551
-4.14539
-3.49198
-2.36005
-0.485547
33.8238
33.5632
32.9888
32.093
30.8239
29.0516
26.4997
22.5212
15.4022
18.833
7.58956
-130.606
-904.63
-957.905
-275.452
-86.5198
-42.2145
-26.7892
-19.7899
-14.2934
-4.21889
-6.94517
-6.36202
-6.00116
-5.5163
-4.76323
-3.99701
-3.37175
-2.88856
-2.51011
-2.2081
-1.95177
-1.74609
-1.56301
-1.36631
-1.12529
-0.80121
-0.356177
0.203365
0.641665
29.2048
28.6353
27.2793
25.0414
21.715
16.8655
9.70215
-1.24731
-18.853
-38.9076
-100.868
-226.465
-414.661
-440.516
-277.188
-151.434
-88.2418
-55.4908
-37.2424
-25.4919
-16.5867
-11.3422
-7.03621
-3.94362
-2.28413
-1.39464
-0.806836
-0.401443
-0.143115
0.0127166
0.107687
0.169029
0.209752
0.245973
0.294658
0.367643
0.470737
0.593486
0.670408
0.513802
25.3619
24.5408
22.5477
19.2306
14.3009
7.19361
-3.04061
-17.9616
-40.195
-74.2949
-122.109
-183.257
-239.752
-248.196
-201.016
-140.631
-95.1102
-65.8744
-46.8129
-33.5572
-24.1868
-18.0374
-12.7835
-8.94621
-6.51258
-4.90519
-3.69416
-2.73472
-1.98356
-1.39853
-0.935499
-0.561462
-0.256178
-0.00527644
0.205597
0.380397
0.513892
0.583772
0.537609
0.295427
22.6097
21.6188
19.1834
15.1333
9.16448
0.703686
-11.1101
-27.447
-49.7814
-79.6469
-117.175
-158.427
-191.625
-199.011
-174.744
-134.829
-98.3048
-71.4839
-52.4886
-38.5619
-28.1665
-20.4562
-14.4311
-9.9
-6.65446
-4.34318
-2.65522
-1.40525
-0.486758
0.179434
0.659142
1.00238
1.24368
1.40539
1.50285
1.53915
1.50469
1.37318
1.09407
0.586797
21.1739
20.0977
17.4385
13.0232
6.55487
-2.51718
-14.9584
-31.6665
-53.5093
-80.8671
-112.583
-144.428
-168.346
-174.651
-159.385
-130.146
-99.289
-74.0246
-55.0689
-40.8262
-29.9988
-21.8236
-15.6695
-11.058
-7.67519
-5.23817
-3.47444
-2.17639
-1.21167
-0.493324
0.0423231
0.442492
0.739413
0.952944
1.09334
1.16045
1.14304
1.01791
0.753552
0.334538
57.2602
58.1396
60.3541
63.9481
68.9413
75.4257
83.4813
93.0255
103.66
114.455
123.707
128.791
127.19
117.933
102.942
85.989
69.8595
55.7434
43.997
34.5733
27.193
21.451
16.9629
13.4652
10.772
8.69473
7.07839
5.82213
4.85365
4.11233
3.53734
3.08633
2.72756
2.44123
2.19979
1.97677
1.74375
1.46305
1.08496
0.537564
56.2062
57.0515
59.2036
62.7267
67.6804
74.227
82.5625
92.7827
104.716
117.639
129.893
137.409
136.024
124.164
105.659
86.2424
68.7062
53.8776
41.9404
32.6767
25.6501
20.1437
15.7942
12.4648
9.95627
8.01183
6.47529
5.26922
4.33141
3.61448
3.05615
2.61529
2.27059
1.99488
1.77037
1.57579
1.38542
1.16528
0.866844
0.420051
54.1336
54.9035
56.9131
60.256
65.0622
71.6227
80.361
91.7582
106.202
123.564
141.666
155.385
154.429
136.386
111.221
87.5101
67.1278
50.7459
38.3588
29.4271
23.5146
18.4942
13.8595
10.4846
8.17753
6.46282
5.13858
4.1311
3.36333
2.76686
2.30993
1.96305
1.70314
1.50796
1.36787
1.27195
1.20735
1.14479
1.01614
0.634493
51.0995
51.7581
53.5136
56.4962
60.9143
67.2082
76.1052
88.7053
106.597
132.026
161.722
192.146
195.36
164.062
126.694
96.8755
70.8452
51.1623
37.2419
27.7694
19.1354
16.5217
11.4114
7.65716
5.14698
3.31162
1.9711
1.015
0.333835
-0.162202
-0.526205
-0.789487
-0.971903
-1.09316
-1.14818
-1.12542
-1.01152
-0.800803
-0.525544
-0.382022
47.2332
47.7362
49.0922
51.4563
55.0815
60.4962
68.644
81.1555
100.862
136.735
193.102
259.196
276.62
188.781
132.065
94.8658
61.0775
39.2877
25.9795
18.2942
15.7506
7.90342
5.44508
3.81337
2.14642
0.686236
-0.417205
-1.2676
-1.94032
-2.45379
-2.84289
-3.1198
-3.30257
-3.4092
-3.42373
-3.30629
-3.00714
-2.44458
-1.55796
-0.645084
42.7679
43.043
43.8386
45.2881
47.6133
51.2814
57.1789
67.0212
84.3512
128.315
205.926
373.223
514.422
169.788
153.764
94.901
48.0399
24.2076
11.9689
5.08276
-3.25041
-30.8534
-27.9586
-26.1416
-25.2126
-24.114
-23.0088
-22.0621
-21.2681
-20.5886
-19.9814
-19.4398
-18.9225
-18.3907
-17.8073
-17.1083
-16.1668
-14.7201
-12.1771
-7.03325
37.9767
37.9757
38.0802
38.3627
38.9279
39.986
41.9449
45.5825
52.4159
84.8325
151.866
372.482
1825.31
267.329
68.0277
12.9231
-3.43604
-9.83325
-14.8463
-19.1422
-3.59194
-5.58511
-9.94903
-12.2184
-13.0351
-13.361
-13.5422
-13.635
-13.6497
-13.597
-13.5041
-13.3354
-13.0979
-12.769
-12.2842
-11.5242
-10.244
-7.97304
-3.94303
33.1938
32.9006
32.263
31.2722
29.8738
27.9437
25.2366
21.2061
14.4501
17.3484
7.95417
-115.629
-824.996
-854.194
-237.448
-79.4892
-43.8964
-30.9383
-24.4104
-18.9035
-12.945
-21.9561
-17.6143
-13.6021
-11.3546
-9.79166
-8.58297
-7.69435
-7.05918
-6.59919
-6.25615
-5.98066
-5.75515
-5.54231
-5.29837
-4.96767
-4.4724
-3.68912
-2.46811
-0.795289
28.7953
28.2277
26.8935
24.7088
21.4947
16.8789
10.1914
0.20728
-15.4275
-33.1947
-86.8648
-196.001
-360.995
-382.084
-240.326
-133.848
-80.4797
-52.3206
-36.3648
-26.2898
-20.2478
-18.8296
-12.5597
-7.53743
-5.00766
-3.69591
-2.83344
-2.23317
-1.83568
-1.578
-1.40541
-1.28365
-1.19109
-1.09888
-0.985254
-0.825202
-0.588887
-0.247755
0.182585
0.493042
25.136
24.3464
22.4426
19.2955
14.6643
8.06956
-1.28598
-14.699
-34.3321
-63.8979
-104.855
-157.035
-205.278
-213.25
-174.383
-123.987
-85.5214
-60.3699
-43.7297
-32.1769
-24.3091
-19.6926
-14.5433
-10.3933
-7.70385
-5.90588
-4.5451
-3.47287
-2.64139
-2.00174
-1.50415
-1.10912
-0.79342
-0.530703
-0.303226
-0.097095
0.0956209
0.270055
0.386685
0.328259
22.5132
21.5748
19.275
15.4727
9.91765
2.12702
-8.61903
-23.2854
-43.0679
-69.1852
-101.68
-137.203
-165.944
-172.799
-152.802
-119.274
-88.1991
-64.9983
-48.3294
-36.0377
-26.9089
-20.2282
-14.8689
-10.5981
-7.4116
-5.09408
-3.37947
-2.09437
-1.13683
-0.430838
0.0876039
0.467826
0.74469
0.944024
1.08302
1.16989
1.2024
1.16246
1.00418
0.62113
21.1439
20.1304
17.6292
13.4988
7.49656
-0.839615
-12.1477
-27.1632
-46.5739
-70.6383
-98.3186
-126.01
-146.902
-152.758
-140.133
-115.572
-89.2063
-67.2717
-50.5919
-37.9583
-28.3293
-21.0616
-15.5481
-11.2907
-8.06513
-5.68496
-3.9295
-2.61483
-1.62086
-0.868376
-0.298566
0.133542
0.460134
0.702997
0.87462
0.979084
1.00989
0.948591
0.763898
0.41112
55.3461
56.0765
57.9285
60.9274
65.0631
70.376
76.888
84.4767
92.7581
100.934
107.642
110.942
108.926
100.908
88.4109
74.298
60.739
48.7094
38.5839
30.3595
23.8228
18.6838
14.6832
11.5914
9.20449
7.3459
5.88793
4.74814
3.86494
3.1958
2.67622
2.27158
1.93385
1.67515
1.46128
1.26658
1.07404
0.854966
0.581332
0.231216
54.3338
55.03
56.8184
59.7398
63.8148
69.1366
75.8127
83.8481
93.011
102.62
111.238
116.259
114.368
104.508
89.5746
73.7969
59.2808
46.7877
36.5606
28.4573
22.0985
17.1524
13.3173
10.3953
8.16299
6.414
5.02384
3.92017
3.03379
2.40498
1.91511
1.51211
1.20986
0.958387
0.762006
0.606787
0.465263
0.320389
0.153486
-0.0220438
52.3421
52.9701
54.6185
57.3552
61.2555
66.5089
73.3891
82.1761
93.0217
105.638
118.361
127.197
125.374
111.056
91.5304
72.95
56.6291
43.1225
32.6607
24.768
18.6418
14.2496
10.6503
7.91003
5.8914
4.34584
3.15449
2.2669
1.59347
1.03221
0.615457
0.320429
0.114294
-0.0227717
-0.10886
-0.143175
-0.131612
-0.078646
-0.00671173
0.0307885
49.4431
49.9674
51.3754
53.7664
57.2749
62.2019
69.0387
78.4956
91.5126
109.2
133.413
154.784
155.945
131.746
103.044
79.4719
58.4082
42.2209
30.5861
22.41
11.6283
8.88988
5.9242
3.31607
1.31614
-0.248482
-1.47935
-2.4086
-3.05575
-3.51461
-3.82643
-4.02478
-4.13502
-4.17847
-4.15011
-4.02611
-3.78505
-3.37895
-2.73388
-1.69071
45.7752
46.1459
47.1895
49.015
51.7902
55.8817
61.9271
71.0017
84.8951
113.239
152.76
198.923
208.325
140.918
101.179
72.4908
45.5499
28.103
17.374
11.2252
9.70857
-2.3734
-3.971
-4.97476
-6.27439
-7.40294
-8.19668
-8.83113
-9.32416
-9.58863
-9.70847
-9.74786
-9.68705
-9.53645
-9.33245
-8.99569
-8.45426
-7.56521
-6.09295
-3.7027
41.542
41.7078
42.2525
43.2673
44.8984
47.4578
51.5341
58.2372
69.7903
103.336
161.907
288.223
394.536
104.096
116.437
58.2586
19.9192
1.27742
-7.922
-12.2328
-9.4707
-22.9518
-25.5458
-30.3783
-32.1356
-32.2143
-31.7669
-31.0779
-30.2644
-29.4825
-28.7104
-27.9079
-27.1201
-26.3303
-25.4488
-24.4175
-23.0907
-21.1176
-17.6766
-10.7293
37.0113
36.9337
36.8733
36.8742
36.9924
37.3495
38.1838
39.9418
43.4709
67.6082
118.347
299.95
1649.7
258.181
-18.8414
-61.7223
-69.618
-70.2607
-68.4947
-63.7153
-36.5537
-35.4906
-37.5758
-37.766
-36.7943
-35.6052
-34.4501
-33.3507
-32.3168
-31.3252
-30.3792
-29.4446
-28.4754
-27.4752
-26.3457
-24.9248
-22.8306
-19.1781
-11.6686
32.4997
32.1699
31.463
30.364
28.812
26.6814
23.7368
19.5008
12.865
14.1245
5.65722
-90.6102
-655.118
-649.284
-192.989
-83.0237
-56.0469
-44.1041
-37.2308
-31.4209
-28.3073
-30.8989
-26.5189
-22.4419
-20.0378
-18.2936
-16.9318
-15.8889
-15.0792
-14.4329
-13.8972
-13.436
-13.0334
-12.6091
-12.1471
-11.5887
-10.8269
-9.66656
-7.74103
-4.29678
28.3482
27.7914
26.4797
24.3503
21.2549
16.884
10.6976
1.75931
-11.586
-26.6726
-69.3885
-152.536
-276.606
-293.975
-191.093
-112.55
-71.3683
-48.3748
-34.7564
-26.1788
-23.3937
-18.3688
-14.6805
-11.636
-9.77144
-8.53293
-7.58351
-6.83111
-6.23526
-5.75924
-5.3708
-5.04364
-4.7631
-4.49636
-4.21917
-3.90103
-3.49523
-2.9348
-2.12802
-0.960201
24.9035
24.153
22.3469
19.3858
15.0812
9.04765
0.6593
-11.0693
-27.7252
-51.9714
-84.5921
-124.901
-161.4
-168.816
-141.098
-103.505
-73.499
-52.9278
-38.7744
-28.7042
-21.6774
-17.7778
-14.2467
-11.2463
-8.9901
-7.3061
-5.9928
-4.94945
-4.12335
-3.46905
-2.94592
-2.51982
-2.16869
-1.86541
-1.59086
-1.32811
-1.06368
-0.786418
-0.494781
-0.191392
22.4334
21.5544
19.4047
15.8762
10.7776
3.72691
-5.83771
-18.6445
-35.5479
-57.3457
-83.877
-112.355
-135.354
-141.237
-126.51
-100.967
-76.3297
-57.2331
-43.0803
-32.4347
-24.4169
-18.5718
-14.0837
-10.5461
-7.84645
-5.82891
-4.31031
-3.15448
-2.27152
-1.59673
-1.07895
-0.679394
-0.369545
-0.12754
0.0615674
0.205931
0.305117
0.349003
0.316241
0.185676
21.1423
20.1982
17.873
14.0574
8.56945
1.04688
-9.00571
-22.1391
-38.8259
-59.1549
-82.1733
-104.938
-122.084
-127.221
-117.792
-98.5034
-77.373
-59.2409
-45.0634
-34.1198
-25.6751
-19.2662
-14.4471
-10.7766
-7.98599
-5.88412
-4.30054
-3.09695
-2.17568
-1.46845
-0.924541
-0.504612
-0.179981
0.068787
0.253663
0.379568
0.441248
0.4245
0.313484
0.120964
53.3409
53.9219
55.4098
57.8084
61.0804
65.2187
70.1901
75.8379
81.7978
87.4066
91.6345
93.1407
90.6713
83.861
73.835
62.5795
51.6495
41.8069
33.3679
26.3889
20.7513
16.2739
12.7929
10.156
8.14047
6.55701
5.30209
4.31788
3.55614
2.97313
2.52172
2.16892
1.88925
1.66749
1.48243
1.31363
1.1392
0.932372
0.660591
0.287292
52.3735
52.9212
54.3454
56.6606
59.8514
63.9462
68.9668
74.8343
81.2679
87.6505
92.8602
95.1243
92.5073
84.517
73.1641
61.1442
49.8667
39.8888
31.4955
24.6755
19.2013
14.8476
11.5061
9.08134
7.26764
5.84246
4.70971
3.81481
3.10954
2.56533
2.13618
1.79283
1.5219
1.30316
1.12515
0.974998
0.833601
0.678498
0.478889
0.197272
50.4743
50.9565
52.2453
54.3724
57.3629
61.3083
66.3346
72.5267
79.8102
87.755
95.1642
99.3028
96.0323
84.7607
70.6142
57.3557
45.4432
35.1175
26.7144
20.0677
14.7453
10.6173
8.07748
6.30151
4.80358
3.57875
2.65541
1.98491
1.49603
1.13295
0.872631
0.691046
0.568589
0.489598
0.445392
0.434177
0.450748
0.480367
0.482456
0.337459
47.7231
48.1052
49.1689
50.9683
53.565
57.1247
61.9042
68.2271
76.4167
86.6392
97.4087
105.629
100.71
82.465
65.018
51.1621
38.7561
28.5766
20.7942
14.5812
8.35646
2.19759
2.31636
2.72137
2.11233
1.20655
0.410965
-0.223079
-0.716071
-1.09294
-1.37119
-1.56761
-1.69327
-1.75816
-1.75918
-1.68118
-1.5088
-1.22042
-0.813066
-0.363841
44.256
44.4987
45.2317
46.5237
48.4458
51.2122
55.1511
60.7587
68.6809
87.9065
107.701
127.938
123.505
84.1343
61.4334
46.9237
30.3603
18.4552
10.8371
5.73073
0.621703
-13.2714
-10.8737
-8.01495
-6.75853
-6.15664
-5.75637
-5.48661
-5.30807
-5.17082
-5.05974
-4.96247
-4.8629
-4.74914
-4.58959
-4.33794
-3.93439
-3.28487
-2.30299
-1.09515
40.2682
40.332
40.627
41.2091
42.1453
43.5945
45.8408
49.3559
54.9092
75.5386
101.288
145.524
166.771
27.9458
24.1889
5.80058
-4.76639
-9.26009
-12.1547
-14.2052
-20.0495
-12.1885
-14.239
-16.6639
-17.5128
-17.6368
-17.525
-17.294
-16.9822
-16.6266
-16.2312
-15.7812
-15.3097
-14.8198
-14.255
-13.5617
-12.6354
-11.2503
-8.98233
-5.14798
36.0164
35.8684
35.644
35.3638
35.035
34.6887
34.3806
34.1843
34.1452
47.5661
58.7394
128.379
166.971
-715.547
-137.209
-94.408
-67.0006
-59.6247
-54.4852
-51.4291
-68.5325
-39.864
-37.8779
-35.9811
-34.1193
-32.2417
-30.555
-29.0911
-27.8052
-26.6614
-25.6241
-24.6687
-23.7751
-22.8872
-21.9708
-20.96
-19.7359
-18.0131
-15.1682
-9.61394
31.8094
31.4311
30.6568
29.4511
27.7478
25.4147
22.2107
17.6825
10.9128
9.62797
-11.2601
-78.775
-302.115
-257.492
-111.25
-62.7981
-39.9455
-28.7696
-22.5416
-17.7738
-9.62754
5.4657
2.31643
-1.50551
-3.19639
-4.01504
-4.55452
-4.93424
-5.18686
-5.34589
-5.43708
-5.48186
-5.47532
-5.39455
-5.22474
-4.94259
-4.48083
-3.71328
-2.47632
-0.80834
27.8888
27.3572
26.0737
24.0037
21.0318
16.9072
11.2009
3.17303
-8.54974
-26.7693
-49.7316
-103.074
-173.973
-188.24
-132.689
-85.368
-57.0878
-39.4158
-28.2215
-20.2749
-10.1296
-1.18839
-2.32992
-3.90246
-4.01263
-3.61587
-3.20583
-2.8443
-2.52262
-2.24331
-2.00641
-1.80319
-1.62695
-1.46557
-1.28913
-1.0765
-0.802406
-0.432293
0.028289
0.405391
24.6858
23.9791
22.275
19.5062
15.5354
10.0712
2.65684
-7.3921
-21.0631
-39.6231
-63.7842
-91.7329
-116.13
-122.353
-106.175
-81.5194
-60.0263
-44.1701
-32.6201
-23.7597
-16.3409
-11.3878
-8.67356
-6.71933
-4.96119
-3.5155
-2.43136
-1.63045
-1.03064
-0.578924
-0.23799
0.022405
0.222489
0.382741
0.524134
0.656774
0.783999
0.895653
0.939022
0.745339
22.3823
21.5659
19.5705
16.3239
11.6923
5.39312
-2.97788
-13.9133
-27.9187
-45.3064
-65.6501
-86.8996
-103.647
-108.653
-99.3973
-81.8161
-63.7557
-48.8557
-37.271
-28.1916
-20.9707
-15.4092
-11.1795
-8.07995
-5.76396
-4.00619
-2.67556
-1.66647
-0.895544
-0.303541
0.151163
0.499838
0.765644
0.966205
1.11358
1.21301
1.25885
1.22923
1.073
0.68129
21.1758
20.3027
18.1605
14.6698
9.70896
3.01321
-5.7715
-17.0089
-30.9533
-47.5057
-65.7743
-83.4958
-96.7267
-101.064
-94.7691
-80.8985
-64.9509
-50.6349
-38.9981
-29.7363
-22.3795
-16.6238
-12.2292
-8.93627
-6.44092
-4.51513
-3.02585
-1.87988
-1.00023
-0.325431
0.190933
0.583789
0.879502
1.09634
1.24504
1.32923
1.34041
1.25634
1.03412
0.600871
51.3829
51.826
52.9744
54.8171
57.2927
60.3577
63.9388
67.8634
71.8051
75.2407
77.4388
77.5377
74.8134
69.1494
61.3189
52.5978
44.021
36.1579
29.2854
23.507
18.7904
15.0336
12.1156
9.88524
8.14686
6.7523
5.62823
4.7322
4.02515
3.46888
3.02888
2.67676
2.38979
2.14864
1.93485
1.72875
1.50584
1.23624
0.882522
0.399007
50.4614
50.8726
51.9578
53.7152
56.0944
59.075
62.6148
66.5831
70.6917
74.4262
76.9862
77.3016
74.3703
68.0922
59.6936
50.749
42.1676
34.3692
27.6316
22.0526
17.5534
14.0135
11.3364
9.32829
7.75113
6.47046
5.43211
4.59601
3.92181
3.37677
2.93485
2.57312
2.27384
2.02084
1.79877
1.59265
1.38101
1.13427
0.811039
0.359651
48.6566
49.0055
49.9586
51.53
53.6923
56.4626
59.8565
63.8256
68.1702
72.4202
75.6603
76.3523
72.6907
64.7653
55.2623
46.2147
37.859
30.2564
23.774
18.5234
14.3713
11.2672
9.23435
7.65941
6.24037
5.03082
4.08371
3.36485
2.81729
2.39642
2.07252
1.82438
1.63514
1.49031
1.37793
1.28795
1.20466
1.09885
0.911594
0.517411
46.0517
46.3084
47.0535
48.3119
50.0897
52.4387
55.4425
59.1608
63.5467
68.273
72.3991
73.666
68.4882
57.4915