/*--------------------------------*- C++ -*----------------------------------*\
| =========                 |                                                 |
| \\      /  F ield         | OpenFOAM: The Open Source CFD Toolbox           |
|  \\    /   O peration     | Version:  2306                                  |
|   \\  /    A nd           | Website:  www.openfoam.com                      |
|    \\/     M anipulation  |                                                 |
\*---------------------------------------------------------------------------*/
FoamFile
{
    version     2.0;
    format      ascii;
    arch        "LSB;label=32;scalar=64";
    class       surfaceScalarField;
    location    "1";
    object      phi;
}
// * * * * * * * * * * * * * * * * * * * * * * * * * * * * * * * * * * * * * //

dimensions      [0 3 -1 0 0 0 0];

oriented        oriented;

internalField   nonuniform List<scalar> 
338621
(
24.9951
0.00242067
0.00116417
24.9874
0.00511426
0.00246935
24.9752
0.00809643
0.0039921
24.958
0.0112245
0.00586853
24.9348
0.0146074
0.0084056
24.9021
0.0206576
0.0117655
24.8556
0.030161
0.0160653
24.7929
0.0407411
0.0216162
24.7314
0.0324982
0.0286532
24.6887
0.00523922
0.0370827
24.6609
-0.0191981
0.0467331
24.5873
0.0162098
0.0570757
24.616
-0.096771
0.0677369
24.7465
-0.208528
0.0777421
24.7883
-0.128576
0.0865102
24.8205
-0.126202
0.0937287
24.8489
-0.128171
0.0994383
24.8717
-0.127041
0.104047
24.8906
-0.126651
0.107553
24.9167
-0.136317
0.110186
24.9459
-0.1412
0.11187
24.9682
-0.135297
0.113004
24.9852
-0.130852
0.113754
24.9993
-0.128214
0.114111
25.0114
-0.126374
0.114306
25.0217
-0.124686
0.114401
25.0307
-0.123471
0.114375
25.0387
-0.12218
0.114261
25.0454
-0.120985
0.114191
25.0515
-0.120163
0.114161
25.0568
-0.119484
0.114167
25.0616
-0.118981
0.114187
25.0658
-0.118597
0.114329
25.0696
-0.118339
0.114559
25.073
-0.118229
0.114813
25.0765
-0.118565
0.115099
25.08
-0.11884
0.115345
25.0836
-0.119229
0.115602
25.0876
-0.119765
0.1158
-0.120704
0.115668
24.995
0.00482716
0.00114169
24.9873
0.0103613
0.002394
24.9747
0.0167058
0.00390468
24.9573
0.02268
0.00576816
24.9341
0.0294065
0.0082863
24.9046
0.0383579
0.011544
24.8691
0.0495362
0.0158985
24.8236
0.0643978
0.021547
24.7594
0.0676356
0.028782
24.6851
0.0415677
0.0376659
24.6426
-0.0251721
0.048186
24.6297
-0.0304746
0.0594273
24.6685
-0.207421
0.0717085
24.7527
-0.375849
0.0829738
24.8331
-0.301649
0.0924372
24.9014
-0.29467
0.0999547
24.9533
-0.286103
0.105769
24.995
-0.279156
0.110292
25.0394
-0.284809
0.113668
25.0727
-0.285685
0.115957
25.0924
-0.278319
0.117397
25.1063
-0.267332
0.11817
25.1156
-0.258855
0.118662
25.123
-0.254513
0.118901
25.1286
-0.251073
0.119026
25.1332
-0.248321
0.11904
25.1364
-0.245698
0.119037
25.1392
-0.243967
0.119003
25.1417
-0.242538
0.119001
25.1436
-0.2411
0.119045
25.1452
-0.240153
0.119139
25.1461
-0.239212
0.119285
25.147
-0.239044
0.119508
25.1478
-0.238878
0.119783
25.1485
-0.238994
0.120086
25.1491
-0.239656
0.120436
25.1499
-0.240368
0.120716
25.1511
-0.241359
0.121006
25.153
-0.242828
0.121186
-0.243884
0.121079
24.9953
0.00689328
0.00109051
24.9877
0.0156761
0.00229154
24.9757
0.0248645
0.00370924
24.9577
0.0349769
0.00557071
24.9334
0.0455895
0.00801206
24.9022
0.0580938
0.0112346
24.8624
0.0735107
0.015641
24.8134
0.0917547
0.0214309
24.7446
0.107064
0.0291026
24.6468
0.100224
0.0389873
24.5704
0.00570773
0.0511814
-0.00574221
0.00528013
-0.00540679
24.6673
-0.0384812
0.0654968
-0.058235
-0.0382195
-0.0580494
24.5599
-0.0109909
0.07908
-0.0953241
0.021241
-0.0939503
24.7329
-0.182308
0.0920988
-0.124163
-0.212258
-0.122195
24.8266
-0.129364
0.102017
-0.122095
-0.126883
-0.119153
24.8875
-0.118715
0.109482
-0.11686
-0.115583
-0.114043
24.9413
-0.115053
0.11515
-0.115362
-0.112485
-0.112271
25.0067
-0.117764
0.119449
-0.116771
-0.115208
-0.114387
25.0493
-0.114275
0.122441
-0.112851
-0.111951
-0.110739
25.0746
-0.110392
0.124049
-0.109242
-0.108221
-0.107147
25.0924
-0.420626
0.124542
25.1057
-0.404926
0.12424
25.1139
-0.390856
0.123891
25.1201
-0.384375
0.123649
25.1251
-0.37957
0.123439
25.1289
-0.375294
0.123186
25.1315
-0.371261
0.122935
25.1337
-0.368912
0.122733
25.1349
-0.366305
0.122602
25.1361
-0.364865
0.122561
25.1367
-0.363308
0.122615
25.1371
-0.362392
0.122766
25.1369
-0.361887
0.122962
25.1368
-0.362027
0.123329
25.1362
-0.362079
0.123681
25.1355
-0.363062
0.124109
25.1351
-0.364485
0.124477
25.135
-0.366118
0.124843
25.1351
-0.368023
0.125099
-0.369978
0.125108
24.9956
0.00922325
0.00101304
24.9889
0.020227
0.00213456
24.9771
0.0331124
0.00343689
24.9603
0.0465089
0.00521598
24.9358
0.0624966
0.00750955
24.9014
0.0816915
0.0106237
24.8559
0.103895
0.0149206
24.7979
0.128918
0.0207391
24.7312
0.144846
0.028733
6.14164
0.0373574
0.0396236
0.0545044
0.0380573
0.0539565
6.16365
6.14085
6.16157
6.12402
0.0175048
0.00582128
-6.11095
6.09877
-0.0340382
0.00775084
-6.10268
6.12411
-0.0421752
0.00977786
-6.11637
6.14329
-0.221097
0.0118952
-6.16216
6.1766
-0.157291
0.0134936
-6.1901
6.20098
-0.144133
0.0145311
-6.21246
6.22689
-0.144823
0.0153396
-6.23893
6.2462
-0.140979
0.0159468
-6.25203
6.25725
-0.135787
0.0163036
-6.26163
6.2656
-0.130803
0.016444
25.105
-0.143219
0.132172
-0.143658
-0.141504
-0.142628
-6.26914
-6.27402
-6.26947
-6.27412
25.1101
-0.539314
0.129344
25.1123
-0.520447
0.127371
25.1148
-0.512934
0.126147
25.1154
-0.505584
0.125344
25.1148
-0.49953
0.12483
25.1143
-0.495272
0.124591
25.1127
-0.491956
0.124583
25.1105
-0.488788
0.12475
25.1075
-0.486925
0.125052
25.104
-0.485309
0.125454
25.0998
-0.484131
0.125933
25.0948
-0.483309
0.126423
25.0894
-0.483628
0.127058
25.0835
-0.483844
0.127613
25.077
-0.484769
0.128186
25.0703
-0.486386
0.128635
25.0635
-0.488223
0.12895
25.0576
-0.491278
0.129091
-0.493419
0.128866
24.9973
0.00985512
0.000908088
24.9913
0.0242038
0.00191581
24.9816
0.0397429
0.00307817
24.9661
0.0572038
0.00467558
24.9433
0.0785288
0.00673112
24.9099
0.105436
0.00953282
24.86
0.140278
0.0133974
24.7858
0.184215
0.0188189
6.17131
0.233984
0.0263214
6.164
6.171
6.16397
6.15519
0.0495136
0.0039636
6.12963
0.00564881
-6.15763
0.0201304
0.0119483
0.0117034
0.020359
-0.0417904
-6.07677
6.04244
0.00780718
-0.00219847
0.00414281
0.00370492
-0.0019752
0.0228779
-6.0418
6.05991
0.0103708
0.0289812
-0.0403024
-0.0404918
-0.0192864
0.0426744
-6.11215
6.13744
0.0134617
-0.0525037
-0.0671613
-0.105015
-0.0529931
0.238966
-6.17026
6.18277
0.0153628
-0.0516039
-0.0554911
-0.0547418
-0.0520548
0.186039
-6.19488
6.2086
0.0164882
-0.0520024
-0.0512786
-0.0511276
-0.052105
0.1763
-6.22237
6.23436
0.0172642
-0.0502498
-0.0501276
-0.0500736
-0.0502874
0.17149
-6.24414
6.25153
0.0176989
-0.0475764
-0.0473924
-0.0473693
-0.0475888
0.164845
-6.25805
6.26275
0.0177718
-0.044888
-0.0450265
-0.0450112
-0.0449137
0.157383
-6.26693
6.26912
0.0175414
-0.0423626
-0.0427952
-0.0427456
-0.0424311
0.150609
-6.27224
6.2743
-0.162674
0.0174057
25.0594
-0.62821
0.120522
-6.27496
-6.26935
-6.2755
-6.2712
25.0367
-0.611591
0.113873
25.012
-0.596879
0.10867
24.9871
-0.585105
0.104397
24.9636
-0.577319
0.101304
24.941
-0.572043
0.0993695
24.919
-0.568293
0.0983383
24.8981
-0.565798
0.0979594
24.8772
-0.564075
0.098028
24.8566
-0.563176
0.0983998
24.8365
-0.562911
0.0989656
24.8166
-0.563058
0.099612
24.7964
-0.563831
0.100394
24.7766
-0.565207
0.10113
24.7571
-0.567007
0.101805
24.7379
-0.569504
0.102308
24.7198
-0.57268
0.102532
24.7032
-0.577049
0.10238
-0.583462
0.101543
24.9999
0.00848515
0.000776263
24.9965
0.0258803
0.00163697
24.989
0.0446307
0.00263317
24.9772
0.0650181
0.00391717
24.9596
0.0904856
0.00562403
24.9325
0.124598
0.00788726
24.8893
0.172456
0.0109424
24.8168
0.241438
0.0152473
6.17068
0.348103
0.0210844
6.1702
6.17068
6.17003
-0.0655229
6.145
0.0880291
0.00317714
-0.019714
-1.52755
1.52239
0.0242742
0.000600665
-0.0194002
-1.50413
1.49198
0.0307967
0.000756458
-1.46836
0.0523584
1.47821
-0.0633759
0.00117859
-1.52938
0.0851416
1.53791
-0.0951923
0.00152143
-1.53628
0.0628665
-0.0669636
0.00186624
1.53851
-1.54816
0.0609777
-0.0654761
0.00188914
1.55077
0.0583644
-1.55661
1.55809
-0.0617177
0.00186757
0.0540906
-1.56112
1.5617
-0.0565263
0.00185513
0.0508327
-1.56244
1.56256
-0.0528088
0.00186415
0.0477358
-1.56199
1.56162
-0.0492893
0.00193012
-1.55493
0.178054
6.15902
-0.172848
0.0195198
-1.53907
-1.55424
-1.53551
23.8344
-0.726065
0.0635724
-6.10062
-5.79358
-6.11339
-5.79252
23.8577
-0.691574
0.0567315
23.8762
-0.668332
0.0529088
23.8925
-0.651614
0.0502469
23.9063
-0.639848
0.0486985
23.9179
-0.63162
0.0479737
23.9279
-0.625979
0.0477057
23.9366
-0.622187
0.0476369
23.9447
-0.619761
0.0476249
23.9523
-0.618329
0.0475933
23.9595
-0.617636
0.0474936
23.9668
-0.617646
0.0472637
23.9742
-0.618154
0.0469262
23.9817
-0.619075
0.0463793
23.9897
-0.620547
0.0455762
23.9981
-0.622327
0.0444426
24.0069
-0.624442
0.0428793
24.016
-0.626882
0.0407805
-0.629418
0.0381598
25.003
0.00459657
0.000631672
25.0036
0.0239928
0.00131507
25.0007
0.0453852
0.00210558
24.995
0.0676768
0.00303612
24.9862
0.0950693
0.0042303
24.9725
0.132447
0.00578176
24.9527
0.184605
0.00770901
24.9212
0.262722
0.0101721
6.21297
0.389031
0.0130605
6.22098
6.21265
6.22062
-0.106442
6.19745
0.120096
0.00186643
-0.039437
-1.54192
1.53575
0.0453003
0.000309918
-0.0823075
-1.50624
1.48772
0.100652
0.000168569
0.00436432
-0.0746589
0.0748391
-0.00455704
1.25692e-05
-0.0213892
0.00045246
0.0209003
3.22959e-06
3.31534e-05
-0.20599
0.0100661
-0.0212073
0.00124976
0.215882
-1.16056
0.0516651
-0.0735625
0.00171686
1.18074
0.0468616
-1.22535
1.23567
-0.0576032
0.000421085
0.0466948
-1.26769
1.27831
-0.0570298
-0.000287025
0.0452966
-1.30631
1.31507
-0.0530975
-0.000965129
0.0449666
-1.33817
1.34643
-0.0515223
-0.00170201
-1.39201
0.20477
5.83027
-0.218594
-0.0122135
-1.4947
-1.41668
-1.50085
24.0128
-0.658787
-0.0769967
-5.87056
-6.16296
-5.80848
-6.16111
24.023
-0.627929
-0.0738497
24.0383
-0.611293
-0.072327
24.0574
-0.5989
-0.0718129
24.0784
-0.588844
-0.0719939
24.1004
-0.581187
-0.0724481
24.123
-0.575616
-0.0729898
24.1459
-0.571599
-0.0734249
24.1687
-0.568881
-0.0737404
24.1915
-0.567185
-0.073934
24.2143
-0.566302
-0.0740635
24.2369
-0.566169
-0.0741131
24.2595
-0.566567
-0.07423
24.2822
-0.567349
-0.0743793
24.3047
-0.568333
-0.0746882
24.3272
-0.569578
-0.0752329
24.3494
-0.570657
-0.0760657
24.3709
-0.57115
-0.0772173
-0.56987
-0.0782882
25.0048
-0.000384167
0.000484844
25.01
0.0177404
0.000994516
25.0149
0.0389386
0.00153337
25.0189
0.0616348
0.00213054
25.0207
0.0905086
0.00276424
25.0256
0.124073
0.00349317
25.0375
0.168633
0.00416371
25.063
0.232622
0.00456564
6.27404
0.333772
0.00430345
6.28181
6.2742
6.28395
-0.112237
6.2817
0.104145
0.000425367
-0.0447857
-1.57784
1.57954
0.043085
3.99778e-06
-0.0844587
-1.59824
1.61341
-0.000321349
0.0696073
-0.0256536
-1.71475
1.75411
-0.00227817
0.0558426
-0.0206852
-0.025782
-0.0208145
0.103071
-1.7142
1.68417
-0.0015138
-0.0715363
0.104549
-1.60961
-0.00186579
1.59902
-0.0921019
0.080028
-1.58451
-0.00192542
1.58157
-0.0751663
0.0586422
-1.57684
1.57587
-0.0556704
-0.00200407
0.058994
-1.57401
1.57218
-0.0551396
-0.00202268
0.0528772
-1.57169
1.57101
-0.0502147
-0.00198555
0.0487329
-1.56999
1.56946
-0.0462971
-0.00191086
-1.56708
0.179918
6.26238
-0.16
-0.0151049
-1.56662
-1.56679
-1.56671
25.0633
-0.541344
-0.112459
-6.26614
-6.26637
-6.26859
-6.26723
25.065
-0.518919
-0.110678
25.0636
-0.50096
-0.108957
25.0618
-0.489718
-0.107405
25.0606
-0.48133
-0.106322
25.06
-0.474932
-0.105638
25.0597
-0.469991
-0.105327
25.0593
-0.465989
-0.10522
25.0592
-0.463487
-0.105281
25.059
-0.461524
-0.105454
25.0586
-0.460067
-0.105768
25.0581
-0.459651
-0.106069
25.0575
-0.459459
-0.106548
25.0566
-0.459293
-0.107099
25.056
-0.459851
-0.107863
25.0555
-0.460219
-0.108875
25.0554
-0.460355
-0.110171
25.0559
-0.459849
-0.111799
-0.458776
-0.113645
25.0057
-0.0054125
0.000302072
25.0141
0.00867564
0.000662945
25.0271
0.0250234
0.000979366
25.0383
0.049169
0.00124175
25.0536
0.0739182
0.00140008
25.0769
0.0994795
0.00135045
25.1146
0.130133
0.000919489
25.1776
0.170107
-0.000367201
6.32034
0.232322
-0.00304846
6.31849
6.32456
6.31884
-0.0894037
6.33641
0.0740496
-0.000712594
-0.0334485
6.41319
0.0885569
-0.00175964
-0.0346332
-0.0335542
-0.0341737
-6.36417
-0.0335948
6.51784
0.0764705
-0.0039209
-0.0263194
-0.0334698
-0.0262694
-6.47075
-0.00709107
-6.54913
6.51573
-0.00596718
-0.00725752
0.015454
-0.0074541
0.0456666
0.0463291
-6.53724
6.51492
-0.125023
-0.0105863
0.0400183
0.0371099
0.0344324
0.0559704
-6.44995
6.4121
-0.17922
-0.0128373
0.0564019
0.0583137
0.0592085
0.0571453
-6.37203
6.33987
-0.177111
-0.0141089
0.0558465
0.0560111
0.0543861
0.0472837
-6.32174
6.3105
-0.158903
-0.0149579
0.0463393
0.0460508
0.0454336
0.0451869
-6.30173
6.29573
-0.157921
-0.0154204
0.044936
0.0447154
0.0445036
0.0420705
-6.29113
6.28557
-0.144987
-0.0155303
0.0415422
0.0415523
0.0409
0.0389967
-6.28113
6.27549
-0.132688
-0.0154206
0.0384918
0.0384508
0.0378016
0.143493
-6.27373
6.27167
-0.126151
-0.0152837
25.0656
-0.408039
-0.123139
-6.26897
-6.26915
-6.26921
-6.26845
25.058
-0.389745
-0.12161
25.0549
-0.377432
-0.120388
25.0532
-0.368552
-0.119454
25.0525
-0.361955
-0.118723
25.0524
-0.356672
-0.118114
25.0526
-0.352677
-0.117587
25.0533
-0.349576
-0.117122
25.0538
-0.347273
-0.11671
25.0543
-0.345634
-0.116358
25.0547
-0.344324
-0.116106
25.0549
-0.343973
-0.115911
25.0547
-0.343453
-0.115786
25.055
-0.343752
-0.115828
25.055
-0.343856
-0.116039
25.055
-0.343784
-0.116428
25.0558
-0.344072
-0.117047
25.0578
-0.343962
-0.11794
-0.343826
-0.11911
25.0063
-0.0104947
0.000228372
25.0161
-0.00155743
0.000427301
25.025
0.0156602
0.000543806
25.0415
0.0321609
0.000553117
25.0681
0.047133
0.000305361
25.1015
0.0665827
-0.000329752
25.1489
0.0845219
-0.00159233
25.2152
0.107965
-0.0039678
25.3242
0.131684
-0.00816269
25.4296
0.145439
-0.0151789
-0.0617823
-0.0574352
-0.0588397
-0.0573512
25.5784
0.133186
-0.0260516
-0.0612787
-0.0647543
-0.0619599
-0.0676572
25.7137
0.0556067
-0.041505
-0.0425062
-0.0285955
-0.0459588
-0.0323942
25.5925
-0.156228
-0.0598123
0.0213484
0.124579
0.0196568
0.171595
25.4999
-0.238815
-0.0786751
0.0842859
0.118103
0.0993776
0.108239
25.4312
-0.250433
-0.0938618
0.0841861
0.14962
0.0320849
0.147171
25.3453
-0.355187
-0.104953
0.136563
0.139555
0.1341
0.136043
25.2606
-0.325616
-0.112216
0.130402
0.134092
0.127386
0.130776
25.1936
-0.336105
-0.1169
0.133458
0.130439
0.129768
0.126401
25.1496
-0.315082
-0.119724
0.123306
0.12011
0.119666
0.115748
25.1251
-0.295712
-0.121267
0.11249
0.112181
0.107649
0.109157
25.1052
-0.280478
-0.121895
0.107518
0.106693
0.104741
0.103295
25.0881
-0.269307
-0.121681
25.0781
-0.258625
-0.121164
25.0721
-0.250653
-0.120712
25.068
-0.244174
-0.120341
25.0652
-0.239219
-0.119877
25.0637
-0.235731
-0.119412
25.0622
-0.232248
-0.118963
25.0613
-0.230148
-0.118557
25.0604
-0.228103
-0.118222
25.0597
-0.227032
-0.117973
25.0594
-0.226129
-0.117837
25.0585
-0.22529
-0.117831
25.0582
-0.225195
-0.117881
25.0573
-0.224786
-0.118139
25.0567
-0.224735
-0.118518
25.0569
-0.224918
-0.119058
25.0576
-0.225017
-0.119775
25.0585
-0.224178
-0.120687
-0.223563
-0.12177
25.0066
-0.0153625
0.000147692
25.0097
-0.00488443
0.000261289
25.0174
0.00777452
0.000246155
25.037
0.0126123
9.28205e-05
25.0625
0.0222159
-0.000397827
25.0918
0.0388485
-0.00141059
25.1397
0.0400575
-0.0031697
25.2008
0.053158
-0.00608835
25.28
0.0636534
-0.010841
25.376
0.0678001
-0.0180432
25.4833
0.0543929
-0.0282935
25.5642
0.0168857
-0.0419866
25.5423
-0.0763935
-0.0578552
25.5281
-0.150736
-0.0737983
25.4053
-0.0399467
-0.0874946
25.3226
-0.173979
-0.0982756
25.2721
-0.169163
-0.105786
25.2102
-0.162911
-0.111117
25.1649
-0.155047
-0.114593
25.1326
-0.146564
-0.116805
25.109
-0.13875
-0.118101
25.0909
-0.132607
-0.118595
25.0783
-0.127313
-0.118671
25.0694
-0.123299
-0.118459
25.0633
-0.120017
-0.118116
25.0593
-0.11762
-0.117557
25.056
-0.115489
-0.116967
25.0542
-0.114009
-0.11638
25.0529
-0.113106
-0.115765
25.052
-0.111985
-0.115229
25.0514
-0.111613
-0.114774
25.0506
-0.110957
-0.114432
25.0505
-0.110959
-0.114175
25.05
-0.110647
-0.114059
25.0501
-0.110821
-0.114095
25.0502
-0.110586
-0.114255
25.0507
-0.110864
-0.114548
25.0516
-0.110875
-0.114993
25.0536
-0.110647
-0.115616
-0.111315
-0.116448
24.9869
0.000126823
24.9818
0.000233385
24.9895
0.000153299
25.0023
-2.24812e-05
25.0254
-0.000634121
25.0662
-0.00174719
25.1102
-0.0036521
25.1705
-0.00676922
25.2462
-0.0116739
25.3331
-0.0187605
25.4163
-0.0284384
25.4744
-0.0408564
25.4532
-0.0549739
25.372
-0.0692683
25.4144
-0.0820597
25.3335
-0.0928028
25.2652
-0.100569
25.2085
-0.105995
25.1633
-0.109694
25.1289
-0.112123
25.1039
-0.113623
25.0856
-0.114356
25.0729
-0.114548
25.0639
-0.114337
25.0579
-0.113983
25.0537
-0.113449
25.0511
-0.112862
25.0494
-0.11233
25.0481
-0.111725
25.0473
-0.111237
25.0466
-0.110873
25.0462
-0.110584
25.0456
-0.110402
25.0454
-0.110378
25.0451
-0.11055
25.0453
-0.110833
25.0457
-0.111232
25.0466
-0.111766
25.0484
-0.11246
-0.113348
24.9956
0.00149052
0.00231487
24.9888
0.00429166
0.0048142
24.9778
0.00687933
0.00778091
24.9618
0.00999993
0.0115084
24.9405
0.0128005
0.0163421
24.9114
0.0174703
0.022725
24.8698
0.0256836
0.0310827
24.813
0.0356083
0.041858
24.758
0.0271784
0.0553865
24.7224
-0.000430543
0.0719988
24.6981
-0.0209512
0.0909836
24.6361
0.0064153
0.111711
24.6647
-0.0944523
0.132778
24.7821
-0.193314
0.152823
24.8141
-0.116546
0.170162
24.8374
-0.114635
0.184215
24.8595
-0.118851
0.195297
24.8778
-0.118936
0.204052
24.8938
-0.119772
0.210807
24.9206
-0.132856
0.215875
24.9478
-0.134905
0.219436
24.9691
-0.130406
0.22195
24.9862
-0.12715
0.223682
25.0007
-0.12522
0.224828
25.0128
-0.123404
0.22554
25.0234
-0.122171
0.225926
25.0325
-0.120753
0.226082
25.0401
-0.119444
0.226087
25.0467
-0.118494
0.226046
25.0525
-0.117664
0.226031
25.0573
-0.116706
0.226065
25.0612
-0.11588
0.226179
25.0649
-0.1157
0.226361
25.0684
-0.115641
0.226683
25.0714
-0.115204
0.227026
25.0745
-0.115443
0.227453
25.0776
-0.115529
0.227754
25.0809
-0.115789
0.22805
25.085
-0.116388
0.228101
-0.116909
0.227365
24.9957
0.00305372
0.00225995
24.9888
0.00862507
0.0047102
24.9773
0.014382
0.00763099
24.9613
0.0201147
0.0113212
24.9395
0.026228
0.0161271
24.9121
0.0332693
0.0225155
24.8794
0.0426174
0.0309478
24.8373
0.056416
0.0419832
24.7751
0.0610721
0.0561528
24.7001
0.0374383
0.073881
24.6578
-0.0260201
0.0948479
24.5967
0.00814732
0.118161
24.6324
-0.200741
0.141887
24.7647
-0.407288
0.164166
24.8452
-0.287854
0.182709
24.9122
-0.2798
0.197349
24.9615
-0.271758
0.208797
25.0009
-0.266114
0.217607
25.0455
-0.275288
0.224274
25.0773
-0.277934
0.229021
25.096
-0.268577
0.232252
25.1094
-0.260179
0.23445
25.1187
-0.25378
0.235992
25.1259
-0.25054
0.237009
25.1318
-0.247997
0.237629
25.1361
-0.245369
0.237967
25.1391
-0.24294
0.238152
25.142
-0.241534
0.238274
25.1439
-0.239874
0.238401
25.1452
-0.238431
0.238571
25.1463
-0.237463
0.238799
25.1473
-0.236721
0.239093
25.1476
-0.235962
0.239492
25.1477
-0.235911
0.239924
25.1483
-0.236082
0.240382
25.1484
-0.235974
0.240818
25.1491
-0.236598
0.241171
25.1503
-0.237444
0.241388
25.1517
-0.237974
0.241399
-0.239091
0.24058
24.9957
0.0046738
0.00215663
24.989
0.0129124
0.0045082
24.9777
0.0218779
0.00732732
24.9611
0.0310435
0.0109116
24.9382
0.0410392
0.0156228
24.9084
0.0518559
0.0219606
24.8706
0.0649202
0.0304898
24.8245
0.0814036
0.041935
24.7592
0.097588
0.0571452
24.6646
0.0933907
0.0768932
24.5878
0.0047936
0.101417
-0.00518503
0.00456093
-0.00414504
24.7225
-0.0383393
0.129473
-0.0584069
-0.0373865
-0.0565305
24.5816
0.0217959
0.157845
-0.0940944
0.0243061
-0.0903757
24.7446
-0.213497
0.184048
-0.122269
-0.209414
-0.116997
24.8348
-0.12682
0.203672
-0.118942
-0.12153
-0.112708
24.8931
-0.115661
0.218335
-0.11415
-0.109963
-0.107777
24.9453
-0.11291
0.229753
-0.112675
-0.106905
-0.106513
25.0096
-0.115697
0.238441
-0.11502
-0.109812
-0.10911
25.0515
-0.112911
0.244692
-0.111966
-0.10741
-0.107126
25.0772
-0.110055
0.248678
-0.108718
-0.105498
-0.103908
25.0953
-0.412905
0.250776
25.1078
-0.400388
0.251962
25.1162
-0.390908
0.252706
25.1223
-0.386859
0.253804
25.1271
-0.383635
0.254328
25.1305
-0.380385
0.254772
25.1332
-0.377231
0.254526
25.1347
-0.374746
0.254467
25.1355
-0.372584
0.254419
25.1367
-0.371495
0.254439
25.1368
-0.369451
0.254549
25.1368
-0.368731
0.254758
25.1372
-0.368203
0.254807
25.1368
-0.367553
0.255409
25.1361
-0.367489
0.255751
25.1358
-0.367554
0.256037
25.1354
-0.367969
0.256184
25.1352
-0.368546
0.256116
25.1359
-0.369303
0.255805
-0.370011
0.254709
24.9966
0.00597385
0.00199981
24.9902
0.0171135
0.0041908
24.9791
0.0294111
0.00682794
24.9627
0.0421805
0.0101996
24.9397
0.0565653
0.0146754
24.9067
0.0742794
0.0207724
24.8621
0.0947839
0.0291862
24.8043
0.118665
0.0408042
24.7361
0.137061
0.0569078
6.14301
0.0371792
0.0791317
0.0521582
0.0368802
0.051699
6.16265
6.14351
6.16235
-0.0115373
6.12575
0.0160736
0.0174902
-0.0154675
-6.11395
6.10212
-0.0343925
0.0233824
-0.019598
-6.10629
6.09892
0.0192598
0.0295959
-0.0237799
-6.11451
6.14659
-0.257496
0.0357899
-0.0269462
-6.16493
6.17889
-0.154173
0.0403692
-0.0290794
-6.19213
6.20289
-0.140776
0.0434188
-0.0306565
-6.21375
6.22802
-0.142334
0.0457902
-0.0318232
-6.24069
6.24791
-0.138719
0.0476365
-0.03255
-6.25368
6.2589
-0.134416
0.0488558
-0.0328265
-6.26259
6.26651
-0.130639
0.0495224
25.1028
-0.143915
0.274917
-0.144495
-0.142535
-0.140673
-6.2701
-6.27404
-6.26931
-6.27317
25.109
-0.55116
0.274025
25.1114
-0.538593
0.272652
25.1133
-0.535462
0.272867
25.1137
-0.531606
0.272929
25.1125
-0.52762
0.273321
25.1112
-0.524547
0.273239
25.1091
-0.521558
0.27347
25.1063
-0.518848
0.273779
25.1026
-0.516934
0.274163
25.0989
-0.514809
0.274602
25.0944
-0.513421
0.275061
25.0893
-0.511878
0.275218
25.0839
-0.510923
0.275806
25.0781
-0.509993
0.275886
25.0724
-0.509393
0.275813
25.0661
-0.508345
0.275298
25.0601
-0.507932
0.274346
25.0553
-0.50828
0.272872
-0.507782
0.270404
24.9983
0.00568779
0.00178794
24.993
0.020422
0.00375007
24.9833
0.0359049
0.00610925
24.9685
0.0523406
0.00912455
24.9463
0.0721489
0.0131422
24.9141
0.0973525
0.018401
24.8653
0.13024
0.0263725
24.7927
0.17259
0.0372528
6.17331
0.222622
0.0529061
6.16632
6.17398
6.16668
-0.00785601
6.15812
0.0482304
0.0119642
-0.0112618
6.13223
0.0171665
-6.16073
0.0193732
0.0110808
0.0196145
0.0108098
-0.0382941
-0.0156593
-6.07981
6.04685
0.0239633
-0.00269089
0.00281892
-0.00279531
0.00282524
0.0246493
-0.0208988
-6.04557
6.05949
0.0318755
0.0518523
-0.0409405
0.0512899
-0.0405735
-0.0462377
-0.0267027
-6.10019
6.1415
0.0399789
-0.0512229
-0.129529
-0.0520799
-0.128869
0.307381
-0.0303779
-6.17243
6.18379
0.044491
-0.049558
-0.0538358
-0.0507665
-0.0527517
0.181553
-0.032351
-6.19697
6.21077
0.0468754
-0.049848
-0.0503786
-0.0511796
-0.049099
0.172164
-0.0336952
-6.22423
6.23602
0.0488263
-0.048127
-0.0492518
-0.0494044
-0.0479695
0.167844
-0.0345044
-6.24563
6.25291
0.0502957
-0.0455155
-0.0466509
-0.0468898
-0.0454867
0.161543
-0.0346906
-6.25944
6.2638
0.0510791
-0.0434415
-0.044541
-0.0444422
-0.0435148
0.155279
-0.0342304
-6.26784
6.26977
0.0511635
-0.0416434
-0.0426277
-0.0422674
-0.0417338
0.149468
-6.27181
-0.0328151
6.2732
-0.163359
0.0508924
25.0426
-0.666746
0.27272
-6.27347
-6.26618
-6.27286
-6.26658
25.0139
-0.66301
0.267057
24.9849
-0.659458
0.26163
24.957
-0.655108
0.255877
24.9312
-0.651235
0.250704
24.9068
-0.647235
0.246483
24.884
-0.642993
0.242549
24.8624
-0.638944
0.239655
24.8412
-0.635196
0.237467
24.8209
-0.631942
0.235836
24.8013
-0.629202
0.234348
24.7823
-0.626792
0.233556
24.7638
-0.62445
0.232456
24.7461
-0.622428
0.231187
24.7292
-0.620205
0.229589
24.7136
-0.61795
0.227455
24.6994
-0.615809
0.22461
24.6869
-0.614356
0.220938
-0.614366
0.216159
25.0019
0.0022452
0.00152599
24.9995
0.0211811
0.00319184
24.9917
0.041095
0.00517248
24.9795
0.0606527
0.00767239
24.9619
0.0842845
0.010966
24.9358
0.116207
0.0149417
24.8935
0.1617
0.0216697
24.8223
0.228535
0.0304158
6.1726
0.333886
0.0432457
6.17155
6.17304
6.17168
-0.00625182
-0.0631029
6.14719
0.0850362
0.00975149
-0.00205356
-0.0188373
-1.52807
1.52285
0.0233886
0.002728
-0.00303583
-0.0177941
-1.50455
1.49201
0.0295172
0.00389387
-0.00453351
-1.46943
0.0530246
1.47943
-0.0641771
0.00574505
-0.00684272
-1.529
0.154062
1.54051
-0.167106
0.00842851
-0.00931886
-1.53742
0.0604005
-0.0641969
1.53956
0.0110097
-1.54924
-0.0103949
0.0591963
-0.0635911
0.0119873
1.55205
-0.0108199
0.0564263
-1.55771
1.55913
-0.059273
0.0122444
-0.0107165
0.0523322
-1.56198
1.5625
-0.0542566
0.0121299
-0.010061
0.0495223
-1.56303
1.56306
-0.0510808
0.0115982
-0.00890894
0.0470075
-1.56226
1.56177
-0.0482574
0.0106439
-1.55498
-0.0263449
0.177162
6.15857
-0.168348
0.0466532
-1.53841
-1.55503
-1.53926
23.8096
-0.763711
0.134777
-6.09667
-5.79497
-6.10193
-5.79025
23.8234
-0.749753
0.129699
23.838
-0.74567
0.124553
23.8536
-0.739554
0.119121
23.8691
-0.73248
0.114473
23.8837
-0.724836
0.110975
23.8978
-0.717153
0.1078
23.9109
-0.709922
0.105518
23.923
-0.703516
0.103752
23.9344
-0.698024
0.102333
23.9452
-0.693388
0.100872
23.9553
-0.689526
0.0999319
23.9652
-0.686109
0.098656
23.9749
-0.682917
0.0971913
23.9846
-0.679737
0.0953769
23.9945
-0.676421
0.0930464
24.0045
-0.672909
0.0899273
24.0146
-0.6692
0.0855276
-0.665165
0.0787275
25.0088
0.00103442
0.00121888
25.0094
0.019308
0.00254873
25.0059
0.0426212
0.00407493
24.9989
0.0646749
0.00592977
24.9888
0.0903866
0.00827084
24.9749
0.124986
0.0108087
24.9551
0.173952
0.0152857
24.9241
0.249229
0.0204571
6.21327
0.374529
0.0274805
6.22115
6.21334
6.22127
-0.00372855
-0.103012
6.19762
0.116515
0.00588995
-0.00112356
-0.0385683
-1.54183
1.53563
0.0443841
0.0015102
-0.0013252
-0.0812309
-1.50538
1.48674
0.0994254
0.0017814
-0.000173888
0.00460193
-0.074793
0.075066
-0.00488424
0.00018318
0.00522155
-0.239458
0.0198673
-0.0302462
-0.0033843
0.247998
-1.19122
0.0131475
0.0643655
-0.0817748
-0.0102454
1.20572
0.00916529
0.0522093
-1.23841
1.24536
-0.0596004
-0.00872493
0.0059855
0.0504496
-1.27044
1.27997
-0.0589723
-0.00699166
0.00339915
0.047557
-1.30626
1.31488
-0.0543323
-0.00524685
0.00118942
0.0465263
-1.33792
1.34642
-0.0527266
-0.00348423
-1.3912
0.0123149
0.196582
5.81486
-0.221096
-0.0358825
-1.49383
-1.3917
-1.49005
24.1084
-0.696647
-0.202289
-5.87548
-6.16932
-5.83335
-6.17207
24.1532
-0.670913
-0.197477
24.1893
-0.661373
-0.192696
24.2198
-0.652985
-0.18885
24.2453
-0.644608
-0.185372
24.267
-0.636943
-0.182105
24.2863
-0.630326
-0.179055
24.3038
-0.624668
-0.176203
24.3201
-0.620018
-0.173487
24.3352
-0.616278
-0.170815
24.3494
-0.613511
-0.168132
24.3628
-0.611663
-0.165358
24.3754
-0.610423
-0.162562
24.3871
-0.609266
-0.159737
24.3979
-0.608157
-0.157025
24.4078
-0.606917
-0.154633
24.4171
-0.605388
-0.152937
24.4262
-0.603044
-0.152438
-0.598952
-0.154047
25.0081
-0.00397039
0.000938088
25.015
0.0114942
0.00188723
25.0216
0.0347458
0.00292421
25.0252
0.0591241
0.00407792
25.0242
0.0888545
0.00537011
25.0282
0.118075
0.00653682
25.0396
0.158653
0.00822048
25.0669
0.217215
0.00933684
6.27514
0.306913
0.00957555
6.28732
6.27641
6.29043
-0.000944798
-0.108236
6.28236
0.100424
0.00152063
-8.17874e-05
-0.0438896
-1.5775
1.57916
0.0421915
0.000119052
0.000674988
-0.081654
-1.59956
1.61613
0.0651228
-0.000735447
0.00280997
-0.0268169
-1.71315
1.752
0.0599207
-0.00232831
-0.0222304
-0.0277691
-0.0224752
0.00604419
0.113232
-1.71186
1.68009
-0.0804798
-0.00708391
0.106752
-1.6091
0.0081432
1.59789
-0.094211
-0.0095256
0.00885841
0.0753213
-1.58261
-0.0104126
1.58039
-0.0715673
0.00902274
0.0549107
-1.57707
1.57559
-0.0518491
-0.0106099
0.00876369
0.0567491
-1.57481
1.5734
-0.0537282
-0.0103769
0.00830012
0.0510631
-1.57263
1.572
-0.0488062
-0.00992835
0.00767737
0.0475004
-1.56927
1.56959
-0.0461798
-0.00932664
-1.56984
0.0277077
0.182186
6.27438
-0.159674
-0.0437509
-1.56996
-1.5702
-1.57086
25.0878
-0.538878
-0.251799
-6.27722
-6.2698
-6.28339
-6.27586
25.0875
-0.53012
-0.251297
25.0841
-0.517212
-0.249721
25.0804
-0.508246
-0.248422
25.0768
-0.500166
-0.247189
25.0741
-0.493899
-0.245936
25.0717
-0.488449
-0.24475
25.0695
-0.484018
-0.243708
25.0676
-0.48052
-0.242853
25.0657
-0.477618
-0.242197
25.0638
-0.475664
-0.241754
25.0624
-0.474601
-0.241744
25.0608
-0.473936
-0.241461
25.0591
-0.472983
-0.241612
25.0579
-0.472918
-0.241988
25.0572
-0.472307
-0.242731
25.057
-0.471351
-0.243992
25.0575
-0.469378
-0.245945
-0.46681
-0.24854
25.0068
-0.0084266
0.000632411
25.0167
0.00100103
0.00124666
25.0307
0.0200172
0.00182734
25.0389
0.0500148
0.00232097
25.0562
0.0705189
0.00262618
25.0792
0.0940944
0.00255156
25.1165
0.120828
0.00173024
25.1812
0.153067
-0.000533832
6.32907
0.193921
-0.00553376
6.31814
6.3332
6.31663
-0.0852868
0.00130843
6.34725
0.0678297
-0.0020076
-0.0327972
0.00349677
6.42079
0.0868278
-0.00496635
-0.0308136
-0.0329161
-0.0298194
-6.37976
-0.0294684
0.00774154
6.4922
0.0814605
-0.0109092
-0.0289681
-0.0284714
-0.0312257
-6.45243
-0.00956624
0.0139606
-6.541
6.50047
-0.05763
-0.0204066
0.0628461
-0.0109457
0.062037
0.0355099
0.0213178
-6.49305
6.47411
-0.144647
-0.0309328
0.0520461
0.034481
0.0509353
0.0585866
-6.45021
0.0267062
6.40656
-0.183373
-0.0385464
0.0574165
0.0619812
0.0607856
0.0561912
0.0295581
-6.3666
6.33908
-0.177402
-0.0429095
0.0542301
0.0548835
0.0529869
0.0459658
0.0312309
-6.32549
6.31854
-0.159417
-0.0455917
0.0453897
0.0449008
0.0444894
0.0448504
0.0320787
-6.31419
6.30607
-0.155704
-0.0470865
0.04542
0.0439623
0.0445704
0.0441776
0.0322179
-6.29709
6.28789
-0.14578
-0.0476728
0.0417185
0.0434627
0.041035
0.0392408
0.031966
-6.28025
6.27234
-0.128981
-0.0476803
0.0362763
0.039652
0.0374067
0.140104
-6.27082
0.0315994
6.27118
-0.124632
-0.0474508
25.0697
-0.394699
-0.26114
-6.26969
-6.2679
-6.27051
-6.26786
25.0632
-0.385784
-0.259466
25.0598
-0.376619
-0.257658
25.0575
-0.369013
-0.256317
25.0566
-0.362993
-0.254991
25.0559
-0.357745
-0.253607
25.056
-0.35385
-0.252212
25.0564
-0.350751
-0.250862
25.0567
-0.347896
-0.249604
25.0574
-0.34621
-0.248477
25.0577
-0.344606
-0.24749
25.0581
-0.343963
-0.246959