/*--------------------------------*- C++ -*----------------------------------*\
| =========                 |                                                 |
| \\      /  F ield         | OpenFOAM: The Open Source CFD Toolbox           |
|  \\    /   O peration     | Version:  2306                                  |
|   \\  /    A nd           | Website:  www.openfoam.com                      |
|    \\/     M anipulation  |                                                 |
\*---------------------------------------------------------------------------*/
FoamFile
{
    version     2.0;
    format      ascii;
    arch        "LSB;label=32;scalar=64";
    class       volVectorField;
    location    "1";
    object      U;
}
// * * * * * * * * * * * * * * * * * * * * * * * * * * * * * * * * * * * * * //

dimensions      [0 1 -1 0 0 0 0];

internalField   nonuniform List<vector> 
111542
(
(99.9934 0.00578775 0.00233547)
(99.9711 0.0118071 0.00496135)
(99.9297 0.0179903 0.00796352)
(99.8679 0.0244543 0.0117818)
(99.7843 0.0309178 0.0167928)
(99.6769 0.0365855 0.0234508)
(99.545 0.0395802 0.032043)
(99.3908 0.036922 0.043102)
(99.2237 0.0239704 0.0571823)
(99.0636 -0.00568763 0.0743599)
(98.9435 -0.0578028 0.094168)
(98.904 -0.13009 0.115652)
(98.9716 -0.204458 0.137769)
(99.1376 -0.261217 0.158549)
(99.3575 -0.289488 0.176597)
(99.5821 -0.298674 0.191735)
(99.7832 -0.297719 0.203978)
(99.9522 -0.291441 0.213731)
(100.089 -0.2829 0.221203)
(100.197 -0.274117 0.226717)
(100.281 -0.266317 0.230318)
(100.345 -0.259645 0.232439)
(100.392 -0.253899 0.233683)
(100.429 -0.249523 0.234198)
(100.457 -0.24636 0.234295)
(100.48 -0.243974 0.234336)
(100.499 -0.242491 0.234197)
(100.514 -0.241778 0.233978)
(100.526 -0.241512 0.233892)
(100.537 -0.24155 0.233976)
(100.545 -0.241843 0.234213)
(100.552 -0.24242 0.23455)
(100.557 -0.243117 0.235141)
(100.562 -0.243917 0.235996)
(100.566 -0.244848 0.237065)
(100.57 -0.245957 0.238277)
(100.574 -0.247324 0.239498)
(100.579 -0.248823 0.240791)
(100.586 -0.250477 0.242103)
(100.599 -0.252483 0.243398)
(99.9936 0.0172346 0.0022965)
(99.9718 0.0350858 0.00482251)
(99.9309 0.0538092 0.00782905)
(99.8696 0.0736774 0.0116473)
(99.7854 0.0940243 0.0166462)
(99.6748 0.112712 0.0232723)
(99.5349 0.124775 0.0320049)
(99.3652 0.121368 0.0434156)
(99.1716 0.0878603 0.058059)
(98.9729 0.00321617 0.076194)
(98.8102 -0.149957 0.097628)
(98.7497 -0.365489 0.120537)
(98.836 -0.59113 0.144517)
(99.048 -0.754722 0.167112)
(99.3134 -0.836924 0.186367)
(99.5668 -0.866945 0.201932)
(99.783 -0.867055 0.214249)
(99.9592 -0.850954 0.223799)
(100.098 -0.828056 0.230859)
(100.205 -0.803562 0.23568)
(100.286 -0.78045 0.238552)
(100.346 -0.760727 0.239999)
(100.391 -0.744884 0.240566)
(100.424 -0.73283 0.240691)
(100.449 -0.722625 0.240669)
(100.47 -0.713108 0.240663)
(100.487 -0.704747 0.240706)
(100.5 -0.697777 0.240831)
(100.512 -0.691983 0.24108)
(100.521 -0.687286 0.241461)
(100.529 -0.68373 0.241976)
(100.536 -0.681406 0.242641)
(100.541 -0.680159 0.243503)
(100.545 -0.679974 0.24458)
(100.549 -0.680888 0.245852)
(100.553 -0.682936 0.247278)
(100.557 -0.686159 0.248791)
(100.561 -0.690321 0.250348)
(100.568 -0.695309 0.251895)
(100.578 -0.701051 0.253458)
(99.9939 0.0282237 0.00219776)
(99.9732 0.0575248 0.00462195)
(99.934 0.0889868 0.00754171)
(99.8742 0.123302 0.0112642)
(99.7898 0.160078 0.0161673)
(99.6749 0.196887 0.0227394)
(99.5217 0.227334 0.0315739)
(99.323 0.23772 0.0433835)
(99.0758 0.201379 0.058963)
(98.7973 0.0698871 0.0790143)
(98.5465 -0.265748 0.103925)
(98.4356 -0.730141 0.132543)
(98.5603 -1.15122 0.15928)
(98.8676 -1.39355 0.184261)
(99.2155 -1.49284 0.204718)
(99.5186 -1.5214 0.220479)
(99.7631 -1.50528 0.232527)
(99.9532 -1.46785 0.241428)
(100.097 -1.42363 0.247343)
(100.203 -1.37878 0.250432)
(100.281 -1.33773 0.250897)
(100.335 -1.29882 0.249509)
(100.373 -1.27349 0.247589)
(100.402 -1.26068 0.24601)
(100.425 -1.25261 0.244903)
(100.445 -1.24562 0.244176)
(100.459 -1.2393 0.243767)
(100.471 -1.2337 0.243622)
(100.479 -1.22865 0.243694)
(100.486 -1.22414 0.243964)
(100.491 -1.22033 0.244442)
(100.495 -1.2174 0.245174)
(100.497 -1.21549 0.246218)
(100.497 -1.21474 0.247633)
(100.497 -1.21528 0.249442)
(100.497 -1.21724 0.251632)
(100.496 -1.22067 0.254138)
(100.496 -1.2255 0.25687)
(100.497 -1.23151 0.259739)
(100.501 -1.23804 0.262779)
(99.9946 0.0382383 0.00204343)
(99.9759 0.0782728 0.00430828)
(99.9403 0.122216 0.00704724)
(99.8847 0.17189 0.0105549)
(99.8036 0.228303 0.0152094)
(99.6876 0.290786 0.0215214)
(99.5224 0.35498 0.030167)
(99.2874 0.408209 0.042017)
(98.9535 0.420679 0.0582013)
(98.4566 0.218205 0.0802187)
(98.2003 0.0374877 0.0870962)
(97.8551 -0.62143 0.103342)
(97.9211 -1.42748 0.118106)
(98.4004 -1.94735 0.131141)
(98.9048 -2.1039 0.143915)
(99.3028 -2.13828 0.152494)
(99.6216 -2.10175 0.158286)
(99.8597 -2.03047 0.162096)
(100.032 -1.95177 0.164043)
(100.158 -1.87878 0.164273)
(100.317 -1.92607 0.261637)
(100.354 -1.84343 0.253928)
(100.364 -1.7817 0.247037)
(100.369 -1.74108 0.243047)
(100.377 -1.712 0.241574)
(100.383 -1.69109 0.241747)
(100.385 -1.67672 0.242863)
(100.384 -1.66712 0.244392)
(100.379 -1.66091 0.245983)
(100.372 -1.65726 0.247476)
(100.361 -1.65576 0.248874)
(100.348 -1.65616 0.250296)
(100.332 -1.65835 0.251912)
(100.313 -1.66226 0.253892)
(100.292 -1.66788 0.256356)
(100.269 -1.67524 0.259344)
(100.244 -1.6844 0.262785)
(100.219 -1.69534 0.266523)
(100.194 -1.70778 0.270358)
(100.166 -1.72011 0.274186)
(99.9956 0.046522 0.00183098)
(99.9805 0.0956915 0.00386668)
(99.9513 0.15089 0.00632309)
(99.9044 0.215642 0.00946074)
(99.8337 0.293521 0.0136271)
(99.7276 0.388037 0.0192988)
(99.5665 0.501796 0.0271381)
(99.3179 0.633275 0.0380269)
(98.8766 0.768872 0.0531551)
(98.5333 0.774313 0.0586218)
(97.7219 0.380621 0.0726653)
(96.9188 -0.691526 0.091026)
(97.013 -2.35139 0.107166)
(98.1352 -2.97024 0.121696)
(98.8621 -3.02032 0.139266)
(99.3396 -2.98427 0.148978)
(99.7052 -2.8668 0.154463)
(99.9486 -2.72905 0.157207)
(100.109 -2.59653 0.157281)
(100.21 -2.48048 0.155349)
(100.276 -2.40821 0.15606)
(100.217 -2.47915 0.241049)
(100.1 -2.44542 0.220516)
(99.9919 -2.40351 0.208143)
(99.8976 -2.36059 0.202386)
(99.8083 -2.324 0.201407)
(99.7214 -2.29414 0.203373)
(99.6373 -2.26933 0.206607)
(99.5558 -2.24845 0.209874)
(99.476 -2.231 0.212505)
(99.3973 -2.2167 0.21434)
(99.3193 -2.20539 0.215595)
(99.2418 -2.19693 0.21668)
(99.1644 -2.19127 0.218036)
(99.0874 -2.18837 0.220005)
(99.0108 -2.18824 0.222738)
(98.9353 -2.19102 0.226139)
(98.8621 -2.19702 0.229896)
(98.7937 -2.20708 0.233517)
(98.7237 -2.22332 0.236318)
(99.9971 0.0521403 0.00156243)
(99.9871 0.107735 0.00330117)
(99.9674 0.171405 0.00537227)
(99.9351 0.248503 0.00797412)
(99.8847 0.345661 0.0113737)
(99.8057 0.471986 0.0159319)
(99.6788 0.640929 0.0221414)
(99.4674 0.872572 0.0306292)
(99.0472 1.19814 0.0421499)
(98.6378 1.35798 0.0466949)
(97.6825 1.49492 0.0450576)
(95.5723 0.714998 0.0416999)
(94.3724 -3.44309 0.0567101)
(98.1533 -4.76063 0.0518175)
(98.6841 -4.03073 0.0561551)
(99.293 -3.96716 0.036039)
(99.6901 -3.74361 0.0133064)
(99.8574 -3.50358 -0.000920683)
(99.8951 -3.29233 -0.00394654)
(99.8387 -3.08709 0.00480866)
(98.6158 -2.83531 0.161124)
(95.1821 -2.31334 0.156294)
(95.2727 -2.31522 0.136228)
(95.3773 -2.29653 0.130035)
(95.4616 -2.27703 0.130792)
(95.5267 -2.26632 0.134257)
(95.5805 -2.26391 0.137651)
(95.627 -2.26707 0.139242)
(95.668 -2.27368 0.13827)
(95.7049 -2.28243 0.134735)
(95.7389 -2.29252 0.129073)
(95.7713 -2.30359 0.121883)
(95.8028 -2.31556 0.113722)
(95.8342 -2.32851 0.105013)
(95.866 -2.34259 0.0960037)
(95.8988 -2.35794 0.086772)
(95.9331 -2.37468 0.077247)
(95.9693 -2.39315 0.0672656)
(96.0068 -2.4143 0.0566772)
(96.052 -2.44137 0.0457903)
(99.9989 0.0541676 0.00126985)
(99.9953 0.112301 0.00265595)
(99.9879 0.179845 0.00425355)
(99.9754 0.263418 0.00618176)
(99.9549 0.371848 0.00858222)
(99.9216 0.518542 0.0116225)
(99.8672 0.725391 0.0154691)
(99.7768 1.03085 0.0201926)
(99.6021 1.50834 0.0255605)
(99.3325 1.90745 0.0276756)
(98.6091 2.84158 0.0244073)
(95.4616 5.84072 0.0137335)
(77.0776 -4.22556 0.0142516)
(102.663 -10.2847 0.0234902)
(52.2996 -3.13887 0.0010993)
(74.2212 -3.93404 0.226756)
(78.3117 -3.28098 0.110607)
(81.359 -3.05136 0.0311938)
(83.7697 -2.95569 -0.0177504)
(85.7959 -2.95814 -0.0410855)
(92.9854 -3.74473 -0.160012)
(95.9478 -3.25673 -0.138301)
(95.9966 -3.09216 -0.129021)
(96.081 -2.96664 -0.132664)
(96.162 -2.87172 -0.143149)
(96.2433 -2.79851 -0.156279)
(96.3298 -2.74202 -0.168907)
(96.4206 -2.69881 -0.179241)
(96.5134 -2.66598 -0.186704)
(96.6064 -2.64117 -0.191568)
(96.6991 -2.62257 -0.194597)
(96.7912 -2.60885 -0.196769)
(96.8829 -2.59904 -0.199036)
(96.9743 -2.59239 -0.202169)
(97.0656 -2.58827 -0.206665)
(97.1567 -2.58613 -0.212733)
(97.2477 -2.58538 -0.220348)
(97.338 -2.58535 -0.229266)
(97.4265 -2.58498 -0.238967)
(97.5292 -2.58191 -0.24791)
(100.001 0.0521576 0.00102897)
(100.004 0.108179 0.0020373)
(100.01 0.173718 0.00312538)
(100.02 0.255568 0.00432207)
(100.034 0.362792 0.00562669)
(100.054 0.508924 0.00698775)
(100.087 0.715333 0.00822333)
(100.149 1.01784 0.00884428)
(100.291 1.4788 0.00774039)
(100.338 1.88972 0.00706791)
(100.611 2.87586 0.00197654)
(102.444 5.41018 -0.0112898)
(111.283 3.85146 -0.080999)
(109.147 -6.89266 0.0119429)
(102.794 -6.91326 -0.0417888)
(101.124 -5.09863 -0.0459026)
(100.667 -4.09034 -0.0429881)
(100.489 -3.52625 -0.0427824)
(100.401 -3.18556 -0.044093)
(100.331 -2.97408 -0.0449841)
(100.234 -2.71816 -0.126497)
(100.262 -2.26889 -0.219826)
(100.246 -2.14812 -0.210471)
(100.236 -2.07571 -0.20443)
(100.231 -2.03219 -0.20154)
(100.227 -2.00299 -0.201357)
(100.224 -1.98243 -0.20304)
(100.223 -1.96839 -0.205754)
(100.223 -1.9595 -0.208846)
(100.223 -1.95472 -0.211878)
(100.223 -1.95328 -0.214634)
(100.223 -1.95466 -0.217116)
(100.221 -1.95838 -0.219487)
(100.22 -1.96394 -0.222015)
(100.217 -1.97079 -0.225)
(100.215 -1.97832 -0.228723)
(100.213 -1.98583 -0.23342)
(100.211 -1.99237 -0.23923)
(100.212 -1.99646 -0.246141)
(100.22 -1.99505 -0.25379)
(100.003 0.0457804 0.000654867)
(100.012 0.0949787 0.00132723)
(100.031 0.15257 0.00196956)
(100.061 0.224401 0.00249541)
(100.106 0.317906 0.00278996)
(100.173 0.443195 0.002635)
(100.276 0.614437 0.00159928)
(100.443 0.851183 -0.00112077)
(100.76 1.17803 -0.00704404)
(100.984 1.41831 -0.00949977)
(101.838 1.87677 -0.0184271)
(103.465 1.77929 -0.0357506)
(105.27 -0.249962 -0.0575183)
(104.815 -2.86542 -0.0404019)
(103.001 -3.58972 -0.0601142)
(101.776 -3.37093 -0.0752769)
(101.14 -3.0162 -0.0838661)
(100.796 -2.71512 -0.0883017)
(100.596 -2.48818 -0.09014)
(100.463 -2.31754 -0.090517)
(100.368 -2.17906 -0.0908468)
(100.268 -1.88784 -0.23905)
(100.235 -1.84383 -0.234431)
(100.216 -1.80861 -0.230794)
(100.208 -1.78119 -0.228581)
(100.204 -1.75867 -0.227547)
(100.204 -1.73951 -0.227276)
(100.205 -1.72345 -0.227419)
(100.207 -1.71039 -0.227751)
(100.209 -1.70004 -0.228155)
(100.211 -1.69209 -0.228604)
(100.213 -1.68622 -0.229141)
(100.214 -1.68209 -0.22985)
(100.215 -1.67933 -0.230832)
(100.215 -1.67748 -0.232189)
(100.215 -1.67606 -0.23401)
(100.215 -1.67454 -0.236371)
(100.217 -1.67231 -0.239324)
(100.222 -1.66884 -0.242896)
(100.237 -1.66405 -0.247107)
(100.004 0.0355382 0.000458796)
(100.019 0.0737951 0.00087988)
(100.049 0.118428 0.00112996)
(100.095 0.173675 0.0010861)
(100.163 0.244515 0.00056243)
(100.262 0.336735 -0.000775954)
(100.408 0.456588 -0.00348783)
(100.627 0.608555 -0.00848986)
(100.962 0.788911 -0.0172983)
(101.449 0.873634 -0.0319369)
(102.093 0.776208 -0.0544412)
(102.775 0.245272 -0.0855058)
(103.139 -0.750697 -0.12015)
(102.893 -1.58941 -0.150896)
(102.247 -1.90048 -0.180571)
(101.611 -1.90947 -0.203835)
(101.158 -1.82646 -0.219528)
(100.863 -1.72379 -0.229598)
(100.666 -1.62577 -0.235839)
(100.527 -1.53807 -0.239296)
(100.43 -1.46021 -0.240642)
(100.367 -1.38832 -0.240225)
(100.324 -1.3285 -0.239019)
(100.296 -1.27843 -0.237804)
(100.277 -1.23777 -0.236778)
(100.264 -1.20523 -0.235947)
(100.256 -1.17909 -0.235314)
(100.25 -1.15815 -0.234883)
(100.245 -1.14159 -0.234649)
(100.242 -1.12879 -0.234607)
(100.24 -1.11917 -0.234767)
(100.237 -1.11226 -0.235146)
(100.235 -1.1076 -0.235775)
(100.232 -1.10473 -0.236684)
(100.23 -1.10315 -0.237917)
(100.228 -1.1024 -0.239511)
(100.226 -1.10201 -0.241504)
(100.227 -1.1015 -0.243929)
(100.23 -1.10057 -0.246817)
(100.237 -1.09923 -0.250186)
(100.005 0.022554 0.000299524)
(100.024 0.0467092 0.000499543)
(100.06 0.0748573 0.000473757)
(100.117 0.10928 6.3731e-05)
(100.2 0.152849 -0.00100918)
(100.317 0.207928 -0.00310703)
(100.482 0.275957 -0.00681904)
(100.71 0.354441 -0.0129905)
(101.021 0.430475 -0.0228061)
(101.422 0.46483 -0.0376357)
(101.89 0.401169 -0.0586712)
(102.324 0.163772 -0.0862113)
(102.55 -0.258843 -0.117465)
(102.436 -0.692219 -0.147617)
(102.046 -0.940584 -0.174697)
(101.583 -1.00385 -0.196302)
(101.199 -0.978258 -0.212266)
(100.921 -0.926691 -0.223442)
(100.722 -0.872666 -0.23109)
(100.575 -0.822666 -0.236059)
(100.467 -0.77897 -0.23894)
(100.388 -0.744025 -0.240204)
(100.331 -0.718171 -0.240402)
(100.291 -0.699509 -0.239941)
(100.262 -0.686245 -0.239098)
(100.243 -0.677113 -0.23806)
(100.229 -0.671002 -0.236974)
(100.22 -0.667101 -0.235938)
(100.213 -0.664919 -0.235014)
(100.209 -0.664141 -0.234249)
(100.206 -0.664493 -0.233684)
(100.204 -0.665744 -0.233352)
(100.202 -0.667671 -0.233279)
(100.201 -0.67009 -0.233484)
(100.2 -0.672509 -0.234015)
(100.2 -0.674841 -0.234858)
(100.201 -0.676884 -0.236014)
(100.204 -0.678416 -0.237501)
(100.21 -0.679292 -0.239365)
(100.224 -0.679354 -0.241755)
(100.006 0.00772875 0.000207136)
(100.027 0.0159551 0.000341794)
(100.066 0.0255734 0.000146611)
(100.128 0.0371983 -0.00038549)
(100.217 0.0518664 -0.00175032)
(100.342 0.0701068 -0.00422093)
(100.513 0.091913 -0.00842292)
(100.741 0.115806 -0.0150834)
(101.033 0.136679 -0.0253531)
(101.384 0.141914 -0.0400267)
(101.76 0.111503 -0.0597972)
(102.085 0.0245934 -0.0845103)
(102.254 -0.115791 -0.112445)
(102.189 -0.261861 -0.140624)
(101.914 -0.355522 -0.165772)
(101.548 -0.385744 -0.186624)
(101.208 -0.381336 -0.202849)
(100.941 -0.366744 -0.214624)
(100.74 -0.351063 -0.22294)
(100.59 -0.33646 -0.228539)
(100.477 -0.323534 -0.232017)
(100.393 -0.312668 -0.233838)
(100.333 -0.303414 -0.234426)
(100.291 -0.295175 -0.234097)
(100.261 -0.287395 -0.233289)
(100.241 -0.279917 -0.232235)
(100.227 -0.272702 -0.231086)
(100.217 -0.265761 -0.229965)
(100.21 -0.259157 -0.228963)
(100.205 -0.25297 -0.228151)
(100.202 -0.247259 -0.227581)
(100.199 -0.242063 -0.227282)
(100.196 -0.237404 -0.227263)
(100.195 -0.23331 -0.227483)
(100.193 -0.229538 -0.22815)
(100.193 -0.226154 -0.229127)
(100.193 -0.223131 -0.230377)
(100.196 -0.220421 -0.231914)
(100.2 -0.21809 -0.233786)
(100.21 -0.216595 -0.236166)
(99.9935 0.00574928 0.00698022)
(99.9715 0.0116694 0.0146735)
(99.9306 0.0178589 0.0236785)
(99.8698 0.0243259 0.0350607)
(99.7878 0.0307802 0.0498782)
(99.6825 0.036422 0.0693758)
(99.5532 0.0395604 0.0946767)
(99.4024 0.0372521 0.127269)
(99.2391 0.0248557 0.168532)
(99.0825 -0.00388559 0.218817)
(98.9646 -0.054507 0.277205)
(98.9256 -0.12538 0.340895)
(98.9906 -0.197596 0.405659)
(99.151 -0.252199 0.466192)
(99.364 -0.279131 0.51855)
(99.5822 -0.287724 0.562027)
(99.7785 -0.286564 0.597058)
(99.9447 -0.280391 0.624759)
(100.081 -0.272202 0.645925)
(100.19 -0.264112 0.661449)
(100.275 -0.256972 0.67196)
(100.341 -0.25093 0.67867)
(100.392 -0.245835 0.682913)
(100.432 -0.241831 0.68524)
(100.463 -0.238765 0.686212)
(100.488 -0.236412 0.686423)
(100.508 -0.234729 0.685923)
(100.523 -0.233651 0.685048)
(100.535 -0.233032 0.684241)
(100.544 -0.232754 0.683664)
(100.55 -0.232743 0.683359)
(100.555 -0.232963 0.683301)
(100.558 -0.233365 0.683667)
(100.561 -0.233928 0.684424)
(100.563 -0.234646 0.685422)
(100.565 -0.23554 0.686473)
(100.568 -0.236623 0.687317)
(100.572 -0.237881 0.687923)
(100.579 -0.239337 0.68811)
(100.592 -0.24112 0.687702)
(99.9937 0.0170985 0.00684282)
(99.9722 0.0347509 0.0143381)
(99.9319 0.0533968 0.0232721)
(99.8717 0.0731768 0.0345857)
(99.7891 0.0934276 0.0493469)
(99.681 0.112054 0.0688533)
(99.5443 0.124387 0.0945619)
(99.3787 0.12175 0.128166)
(99.1899 0.0897296 0.171296)
(98.9962 0.00785883 0.2249)
(98.837 -0.14069 0.288502)
(98.7785 -0.349102 0.358821)
(98.8636 -0.569083 0.430576)
(99.0699 -0.729336 0.496772)
(99.3275 -0.808839 0.552241)
(99.5736 -0.837886 0.596784)
(99.7843 -0.837887 0.631909)
(99.9568 -0.822421 0.659081)
(100.094 -0.800957 0.679234)
(100.201 -0.778793 0.693213)
(100.282 -0.758668 0.702033)
(100.344 -0.742307 0.707384)
(100.39 -0.729506 0.71054)
(100.426 -0.719459 0.712159)
(100.453 -0.710422 0.712675)
(100.475 -0.701676 0.712535)
(100.493 -0.693626 0.712088)
(100.507 -0.686648 0.711641)
(100.517 -0.680767 0.711413)
(100.526 -0.675958 0.711492)
(100.532 -0.672232 0.711896)
(100.537 -0.669594 0.712613)
(100.541 -0.667974 0.713643)
(100.544 -0.667335 0.714909)
(100.547 -0.667652 0.716269)
(100.549 -0.668892 0.717546)
(100.552 -0.671047 0.71854)
(100.556 -0.674034 0.719091)
(100.562 -0.677747 0.719037)
(100.574 -0.682054 0.718307)
(99.994 0.0279726 0.00654477)
(99.9736 0.0570176 0.0137413)
(99.9351 0.0882203 0.0223899)
(99.8765 0.122239 0.0334017)
(99.7941 0.158691 0.0478883)
(99.682 0.195234 0.0672797)
(99.5328 0.225661 0.0933509)
(99.3394 0.236572 0.128261)
(99.099 0.201834 0.17441)
(98.8281 0.0739775 0.233923)
(98.5848 -0.253481 0.307419)
(98.4775 -0.706855 0.391004)
(98.5999 -1.11711 0.474481)
(98.9003 -1.35263 0.54938)
(99.2384 -1.44875 0.608769)
(99.5324 -1.47701 0.654167)
(99.7703 -1.46169 0.688991)
(99.9559 -1.42596 0.715058)
(100.096 -1.38444 0.733023)
(100.2 -1.34339 0.743559)
(100.276 -1.30763 0.747432)
(100.33 -1.27656 0.747625)
(100.369 -1.25783 0.746773)
(100.4 -1.24884 0.745652)
(100.425 -1.24248 0.74413)
(100.445 -1.23598 0.742318)
(100.46 -1.22955 0.740568)
(100.471 -1.22358 0.739159)
(100.479 -1.21819 0.738232)
(100.485 -1.21346 0.73784)
(100.489 -1.20947 0.73797)
(100.492 -1.20635 0.738564)
(100.494 -1.20413 0.739526)
(100.494 -1.20286 0.740709)
(100.494 -1.20257 0.741921)
(100.494 -1.20334 0.742932)
(100.493 -1.20523 0.743492)
(100.494 -1.20826 0.743367)
(100.496 -1.21229 0.742429)
(100.502 -1.21675 0.740878)
(99.9946 0.0378749 0.00607861)
(99.9764 0.0775275 0.012793)
(99.9415 0.121019 0.0208954)
(99.8873 0.170126 0.0312664)
(99.8082 0.225833 0.0450336)
(99.6954 0.287488 0.0637161)
(99.5349 0.350807 0.0893671)
(99.3063 0.403306 0.124688)
(98.9812 0.415574 0.173207)
(98.4964 0.216538 0.239379)
(98.241 0.0329782 0.272925)
(97.9042 -0.627732 0.351252)
(97.9752 -1.42739 0.434322)
(98.4532 -1.94544 0.511604)
(98.9477 -2.09821 0.571881)
(99.3356 -2.13329 0.614472)
(99.6469 -2.09906 0.645242)
(99.8791 -2.03056 0.667324)
(100.046 -1.95554 0.681081)
(100.167 -1.88709 0.68685)
(100.303 -1.91944 0.798633)
(100.334 -1.8588 0.787001)
(100.344 -1.81586 0.775336)
(100.351 -1.78899 0.766413)
(100.359 -1.76943 0.760108)
(100.365 -1.75448 0.755966)
(100.365 -1.74332 0.753723)
(100.362 -1.73506 0.753122)
(100.356 -1.72902 0.75387)
(100.346 -1.72483 0.755653)
(100.335 -1.72224 0.758164)
(100.321 -1.72102 0.761086)
(100.304 -1.7209 0.764105)
(100.286 -1.72164 0.766895)
(100.265 -1.72308 0.769133)
(100.244 -1.72515 0.770492)
(100.221 -1.72794 0.770637)
(100.199 -1.73164 0.769253)
(100.178 -1.73634 0.766121)
(100.156 -1.74114 0.761393)
(99.9957 0.0460453 0.00543904)
(99.9809 0.0946967 0.0114612)
(99.9525 0.14924 0.0187203)
(99.907 0.213108 0.0280017)
(99.8383 0.28977 0.0403521)
(99.7353 0.382615 0.0572267)
(99.5789 0.494098 0.0806842)
(99.337 0.622506 0.113562)
(98.906 0.753898 0.159733)
(98.5655 0.754017 0.186164)
(97.7654 0.358889 0.254278)
(96.9767 -0.710092 0.343135)
(97.0852 -2.35122 0.445496)
(98.2093 -2.95117 0.542289)
(98.9206 -2.97512 0.613457)
(99.38 -2.9356 0.653206)
(99.7343 -2.82221 0.677989)
(99.9685 -2.69282 0.693175)
(100.12 -2.57351 0.697503)
(100.212 -2.47516 0.690569)
(100.263 -2.42209 0.671895)
(100.13 -2.5648 0.744798)
(99.9954 -2.56164 0.702814)
(99.8723 -2.54034 0.665731)
(99.7656 -2.51174 0.63495)
(99.6672 -2.4847 0.61113)
(99.5744 -2.46085 0.594087)
(99.4867 -2.4396 0.58311)
(99.4031 -2.4206 0.577276)
(99.3224 -2.4038 0.57557)
(99.244 -2.38906 0.57692)
(99.1676 -2.37614 0.580255)
(99.0932 -2.3647 0.584554)
(99.0212 -2.35439 0.588904)
(98.9519 -2.34493 0.59252)
(98.8857 -2.33615 0.594747)
(98.8231 -2.32819 0.594986)
(98.765 -2.32157 0.592683)
(98.7132 -2.31752 0.587326)
(98.6635 -2.3185 0.578765)
(99.9971 0.051583 0.00463833)
(99.9875 0.106536 0.00975727)
(99.9685 0.169359 0.0158601)
(99.9374 0.245266 0.0235559)
(99.8887 0.340692 0.0336658)
(99.8123 0.464464 0.0473289)
(99.6893 0.629571 0.0661377)
(99.4831 0.855368 0.0922843)
(99.0705 1.17179 0.12863)
(98.6641 1.32738 0.150652)
(97.7159 1.45698 0.181557)
(95.6247 0.665723 0.239309)
(94.4581 -3.4863 0.344663)
(98.292 -4.74103 0.490333)
(98.8058 -3.91035 0.676859)
(99.3695 -3.83491 0.775407)
(99.7494 -3.61002 0.808293)
(99.8983 -3.38606 0.792416)
(99.9143 -3.20796 0.73417)
(99.8345 -3.04636 0.642115)
(98.6208 -2.81157 0.526128)
(95.0576 -2.52574 0.382606)
(95.123 -2.63115 0.3374)
(95.211 -2.68503 0.306124)
(95.2882 -2.70772 0.284468)
(95.3569 -2.71441 0.270692)
(95.4224 -2.71156 0.263233)
(95.4854 -2.70301 0.260609)
(95.5447 -2.69201 0.261585)
(95.5996 -2.68092 0.265115)
(95.6502 -2.67099 0.270256)
(95.6972 -2.66249 0.276159)
(95.7414 -2.655 0.282021)
(95.7838 -2.64777 0.287165)
(95.8252 -2.63996 0.291032)
(95.8663 -2.63092 0.293107)
(95.9077 -2.62039 0.292815)
(95.9496 -2.60874 0.289406)
(95.9919 -2.59729 0.28173)
(96.0449 -2.589 0.267743)
(99.9989 0.0536199 0.00371117)
(99.9956 0.11103 0.00779431)
(99.9888 0.177599 0.0125072)
(99.977 0.25978 0.0182174)
(99.9577 0.366138 0.0253862)
(99.926 0.509685 0.034586)
(99.8735 0.711658 0.0464824)
(99.7851 1.00948 0.0616325)
(99.6109 1.47477 0.0799677)
(99.3416 1.86669 0.0908238)
(98.6164 2.7853 0.101078)
(95.4499 5.73237 0.109448)
(77.2661 -4.57495 0.193018)
(60.6285 -6.40485 -1.20056)
(75.871 -4.90126 -0.904073)
(78.9168 -3.83155 -0.605112)
(81.4749 -3.36077 -0.36353)
(83.7396 -3.13692 -0.182673)
(85.7623 -3.08488 -0.0393004)
(92.5829 -3.70895 -0.281277)
(96.2762 -3.41611 -0.517495)
(96.4741 -3.31377 -0.48103)
(96.6616 -3.23504 -0.452286)
(96.8043 -3.16924 -0.430386)
(96.9145 -3.10976 -0.414547)
(97.0069 -3.05529 -0.403623)
(97.0885 -3.00619 -0.396609)
(97.1626 -2.96295 -0.392564)
(97.2312 -2.92579 -0.390508)
(97.2956 -2.89453 -0.389486)
(97.3563 -2.86858 -0.388673)
(97.4134 -2.84705 -0.38745)
(97.4667 -2.82882 -0.385488)
(97.516 -2.81278 -0.38276)
(97.5613 -2.79788 -0.379572)
(97.603 -2.78326 -0.376617)
(97.6417 -2.76814 -0.374925)
(97.6788 -2.7516 -0.37587)
(97.727 -2.73181 -0.380823)
(100.001 0.0515254 0.00288863)
(100.004 0.106843 0.00582362)
(100.011 0.171432 0.00901861)
(100.021 0.251892 0.0125604)
(100.035 0.357028 0.0164847)
(100.056 0.499977 0.0207153)
(100.089 0.701534 0.0248429)
(100.149 0.996673 0.0276688)
(100.285 1.44658 0.026256)
(100.329 1.85104 0.0236678)
(100.59 2.82448 0.00904897)
(102.372 5.34575 -0.0461428)
(111.023 4.05906 -0.149958)
(109.014 -6.67527 -0.397836)
(102.722 -6.76893 -0.569199)
(101.081 -4.9571 -0.63618)
(100.642 -3.96465 -0.650014)
(100.484 -3.42528 -0.630187)
(100.414 -3.11603 -0.592571)
(100.359 -2.93901 -0.548207)
(100.278 -2.75223 -0.560574)
(100.31 -2.37728 -0.692004)
(100.293 -2.27759 -0.679815)
(100.28 -2.21491 -0.666408)
(100.269 -2.17434 -0.654337)
(100.258 -2.14382 -0.644569)
(100.249 -2.11964 -0.636972)
(100.241 -2.10105 -0.631303)
(100.235 -2.08751 -0.627369)
(100.229 -2.07835 -0.624941)
(100.224 -2.07291 -0.623774)
(100.219 -2.07054 -0.623634)
(100.214 -2.07056 -0.624321)
(100.209 -2.07226 -0.625662)
(100.205 -2.07489 -0.627612)
(100.201 -2.07771 -0.630239)
(100.198 -2.07998 -0.633791)
(100.196 -2.08078 -0.638687)
(100.198 -2.07889 -0.645446)
(100.208 -2.07248 -0.654253)
(100.003 0.0451994 0.00189601)
(100.013 0.0938127 0.00382792)
(100.032 0.150568 0.00565642)
(100.062 0.221173 0.00718436)
(100.106 0.312859 0.00809402)
(100.173 0.435435 0.00778112)
(100.275 0.602713 0.00506507)
(100.438 0.833786 -0.0022901)
(100.746 1.15272 -0.0185351)
(100.967 1.38886 -0.0302869)
(101.802 1.84067 -0.0724423)
(103.399 1.7462 -0.155056)
(105.17 -0.242403 -0.277572)
(104.72 -2.8175 -0.408001)
(102.944 -3.55052 -0.501816)
(101.741 -3.33777 -0.559419)
(101.121 -2.99369 -0.592913)
(100.789 -2.70483 -0.609632)
(100.597 -2.49001 -0.615559)
(100.469 -2.33112 -0.614985)
(100.377 -2.20224 -0.610285)
(100.283 -1.90848 -0.749545)
(100.25 -1.87084 -0.741661)
(100.229 -1.84009 -0.733797)
(100.218 -1.81523 -0.726876)
(100.212 -1.7934 -0.720936)
(100.21 -1.77349 -0.71577)
(100.209 -1.75573 -0.711223)
(100.211 -1.74042 -0.707223)
(100.212 -1.72763 -0.703732)
(100.214 -1.71725 -0.700739)
(100.216 -1.70907 -0.698248)
(100.216 -1.70274 -0.696285)
(100.217 -1.6978 -0.694869)
(100.217 -1.69371 -0.694089)
(100.216 -1.68983 -0.694073)
(100.216 -1.68553 -0.695033)
(100.218 -1.68012 -0.697257)
(100.222 -1.6731 -0.701078)
(100.235 -1.66473 -0.706743)
(100.004 0.0351747 0.00122499)
(100.02 0.0729523 0.00233138)
(100.049 0.116922 0.00300303)
(100.095 0.171264 0.00287103)
(100.162 0.240727 0.00136303)
(100.261 0.330981 -0.0024661)
(100.405 0.448111 -0.0101917)
(100.619 0.596456 -0.0244243)
(100.946 0.772304 -0.0494663)
(101.421 0.855859 -0.0915655)
(102.049 0.762694 -0.15713)
(102.714 0.246954 -0.249783)
(103.068 -0.720381 -0.360039)
(102.828 -1.5429 -0.47433)
(102.199 -1.85269 -0.56775)
(101.582 -1.86394 -0.633646)
(101.144 -1.78492 -0.676993)
(100.858 -1.68722 -0.704681)
(100.665 -1.59413 -0.721816)
(100.529 -1.51087 -0.731367)
(100.434 -1.43725 -0.735166)
(100.37 -1.36993 -0.7343)
(100.326 -1.31439 -0.732163)
(100.296 -1.26723 -0.729714)
(100.275 -1.22788 -0.726785)
(100.261 -1.19542 -0.723429)
(100.252 -1.16865 -0.71993)
(100.245 -1.14674 -0.716552)
(100.241 -1.12912 -0.713487)
(100.239 -1.11532 -0.710878)
(100.237 -1.10483 -0.708838)
(100.236 -1.09715 -0.707445)
(100.235 -1.09181 -0.70675)
(100.233 -1.08828 -0.706773)
(100.232 -1.08604 -0.707549)
(100.231 -1.08454 -0.709117)
(100.23 -1.08325 -0.711548)
(100.23 -1.08166 -0.71495)
(100.233 -1.07948 -0.719437)
(100.238 -1.07684 -0.724983)
(100.005 0.0223007 0.000736322)
(100.025 0.0461819 0.00122468)
(100.061 0.0739155 0.00109048)
(100.117 0.107868 -0.000149596)
(100.199 0.150583 -0.00327621)
(100.315 0.204533 -0.00934663)
(100.478 0.271119 -0.0200331)
(100.702 0.34795 -0.0378036)
(101.006 0.422372 -0.0660855)
(101.398 0.456544 -0.109045)
(101.854 0.395492 -0.170483)
(102.277 0.164777 -0.251399)
(102.5 -0.248381 -0.345842)
(102.391 -0.671964 -0.441162)
(102.012 -0.913708 -0.524204)
(101.564 -0.975244 -0.587553)
(101.192 -0.950545 -0.632511)
(100.921 -0.901065 -0.66361)
(100.725 -0.849492 -0.68474)
(100.58 -0.801997 -0.698362)
(100.471 -0.760765 -0.706166)
(100.39 -0.728312 -0.709591)
(100.331 -0.704443 -0.710386)
(100.288 -0.686812 -0.709379)
(100.257 -0.673887 -0.706955)
(100.236 -0.664631 -0.703547)
(100.221 -0.658096 -0.69963)
(100.212 -0.653592 -0.69559)
(100.206 -0.650734 -0.691708)
(100.203 -0.649283 -0.688191)
(100.201 -0.649011 -0.685189)
(100.201 -0.649703 -0.682807)
(100.201 -0.651112 -0.681106)
(100.202 -0.652991 -0.680115)
(100.203 -0.655013 -0.679895)
(100.205 -0.65692 -0.680432)
(100.207 -0.658433 -0.681743)
(100.21 -0.65932 -0.683897)
(100.216 -0.659441 -0.687018)
(100.229 -0.658806 -0.691297)
(100.006 0.00763563 0.00049063)
(100.027 0.0157981 0.000714108)
(100.067 0.0252432 0.000140013)
(100.128 0.0367374 -0.00159162)
(100.217 0.0510678 -0.00554652)
(100.341 0.0689063 -0.0126492)
(100.509 0.0902537 -0.024582)
(100.733 0.113682 -0.0436487)
(101.02 0.134107 -0.0729419)
(101.364 0.139487 -0.115312)
(101.732 0.110356 -0.173054)
(102.05 0.0263847 -0.245887)
(102.217 -0.109815 -0.329043)
(102.157 -0.252043 -0.413397)
(101.891 -0.342963 -0.489115)
(101.537 -0.372589 -0.550291)
(101.206 -0.368647 -0.595967)
(100.944 -0.354768 -0.628672)
(100.746 -0.339849 -0.651571)
(100.595 -0.325946 -0.666889)
(100.48 -0.313666 -0.676279)
(100.394 -0.303383 -0.681115)
(100.331 -0.294526 -0.682695)
(100.285 -0.286414 -0.681995)
(100.253 -0.278656 -0.679863)
(100.231 -0.271141 -0.676804)
(100.216 -0.26384 -0.673232)
(100.206 -0.256791 -0.669525)
(100.2 -0.250088 -0.665995)
(100.197 -0.243835 -0.662881)
(100.196 -0.238105 -0.660355)
(100.196 -0.232934 -0.658525)
(100.196 -0.228326 -0.657439)
(100.197 -0.224252 -0.657065)
(100.198 -0.220625 -0.657641)
(100.2 -0.217392 -0.658988)
(100.202 -0.214484 -0.661048)
(100.205 -0.211849 -0.663853)
(100.209 -0.209552 -0.667482)
(100.217 -0.208072 -0.67208)
(99.9938 0.00565113 0.0113595)
(99.9727 0.0114737 0.0237096)
(99.9335 0.0175885 0.0383389)
(99.8755 0.0239879 0.0567237)
(99.7975 0.0304003 0.0805087)
(99.6975 0.0360893 0.111662)
(99.5752 0.039501 0.152316)
(99.4328 0.0378652 0.204842)
(99.279 0.0268029 0.271389)
(99.1315 0.00045742 0.352908)
(99.0206 -0.0465704 0.44825)
(98.9835 -0.112356 0.55287)
(99.0441 -0.179858 0.658793)
(99.1943 -0.2308 0.7576)
(99.3944 -0.25575 0.842733)
(99.6001 -0.263546 0.91284)
(99.7863 -0.262157 0.969201)
(99.9454 -0.256118 1.01378)
(100.077 -0.248368 1.04817)
(100.184 -0.241 1.07385)
(100.269 -0.234636 1.09231)
(100.337 -0.229107 1.10537)
(100.39 -0.224271 1.11477)
(100.432 -0.220426 1.12155)
(100.466 -0.217541 1.12621)
(100.492 -0.215323 1.1291)
(100.513 -0.21359 1.13058)
(100.528 -0.212246 1.13113)
(100.54 -0.211198 1.13125)
(100.547 -0.210372 1.13127)
(100.552 -0.209743 1.13144)
(100.555 -0.209326 1.13193)
(100.555 -0.209141 1.13286)
(100.555 -0.209212 1.13423)
(100.554 -0.209556 1.13593)
(100.554 -0.210204 1.13778)
(100.554 -0.211179 1.1395)
(100.557 -0.212479 1.14083)
(100.562 -0.214112 1.14138)
(100.573 -0.216165 1.14064)
(99.9939 0.0168017 0.0111173)
(99.9733 0.0341605 0.0232314)
(99.9349 0.0525337 0.0376538)
(99.8776 0.0720408 0.0558561)
(99.7992 0.0920716 0.0795428)
(99.6969 0.110695 0.110835)
(99.5679 0.123571 0.1522)
(99.4121 0.122526 0.206493)
(99.2348 0.0939333 0.27657)
(99.053 0.0184471 0.364422)
(98.9041 -0.120098 0.469584)